# vtk DataFile Version 2.0
Two phases flow simulation
ASCII
DATASET UNSTRUCTURED_GRID
POINTS 2108 float
0.711599 0.416223 0 
0.755747 0.401852 0 
0.71641 0.377915 0 
0.830677 0.721121 0 
0.822709 0.711646 0 
0.834549 0.709632 0 
0.0861303 0.0145516 0 
0.0824305 0 0 
0.104172 0 0 
0.98256 0.906998 0 
0.987982 0.895466 0 
1 0.899702 0 
0.229933 0.104337 0 
0.236293 0.12287 0 
0.251537 0.111264 0 
0.660584 0.68674 0 
0.672761 0.705767 0 
0.648495 0.70483 0 
0.328726 0.0690313 0 
0.354904 0.0773511 0 
0.346085 0.0553132 0 
0.795523 0.748079 0 
0.792192 0.75967 0 
0.801107 0.756058 0 
0.243437 0.29804 0 
0.254743 0.275609 0 
0.263094 0.29711 0 
0.76723 0.729599 0 
0.762669 0.743932 0 
0.77582 0.740912 0 
0.904591 0.744756 0 
0.910374 0.754351 0 
0.921551 0.736711 0 
0.240497 0.857107 0 
0.261493 0.836511 0 
0.236529 0.830867 0 
0.495585 0.205269 0 
0.518865 0.185037 0 
0.520159 0.202722 0 
0.906137 0.27026 0 
0.914316 0.285857 0 
0.903284 0.285189 0 
0.136636 0.370529 0 
0.143151 0.393309 0 
0.120505 0.38883 0 
0.351954 0.520971 0 
0.36344 0.557884 0 
0.326339 0.5316 0 
0.341166 0.653158 0 
0.310935 0.654906 0 
0.330663 0.684831 0 
0.848517 0.899732 0 
0.84652 0.907545 0 
0.84062 0.900752 0 
0.311519 1 0 
0.382154 1 0 
0.354107 0.96353 0 
0.899599 0.902407 0 
0.896564 0.910805 0 
0.890703 0.903434 0 
0.0352553 0.389573 0 
0 0.36039 0 
0.0499164 0.358931 0 
0.703734 0.904949 0 
0.687529 0.90534 0 
0.69587 0.915017 0 
0.0746033 0.14487 0 
0.0788447 0.13629 0 
0.0679391 0.132944 0 
0.0238254 0.0802787 0 
0.0296396 0.0909498 0 
0.0142045 0.0887743 0 
0.42544 0.241963 0 
0.443285 0.231109 0 
0.45351 0.255355 0 
0.884142 0.20384 0 
0.939637 0.157555 0 
0.91353 0.210513 0 
0.245606 0.240891 0 
0.246235 0.220929 0 
0.260522 0.23137 0 
0.740456 0.788832 0 
0.746708 0.807508 0 
0.759133 0.794486 0 
0.380319 0.721554 0 
0.351246 0.745094 0 
0.375258 0.771513 0 
0.0662439 0.379131 0 
0.667217 0.868227 0 
0.69055 0.851767 0 
0.664099 0.845767 0 
0.823681 0.918691 0 
0.829232 0.925225 0 
0.820537 0.926775 0 
0.111535 0.697736 0 
0.102538 0.711429 0 
0.118887 0.710644 0 
0.334263 0.0912684 0 
0.391709 0.854939 0 
0.372516 0.890158 0 
0.344844 0.853663 0 
0.293921 0.634438 0 
0.32112 0.627459 0 
0.402686 0.382701 0 
0.400755 0.363306 0 
0.420181 0.367904 0 
0.985651 0.960345 0 
0.986639 0.938488 0 
1 0.95351 0 
1 0.97554 0 
0.42939 0.267674 0 
0.449493 0.278647 0 
0.229751 0.0869634 0 
0.219426 0.0950649 0 
0.231036 0.234428 0 
0.233159 0.24982 0 
1 0.75878 0 
0.977159 0.750767 0 
1 0.717804 0 
0.986813 0.921975 0 
1 0.933668 0 
1 0.915798 0 
0.254323 0.317543 0 
0.596083 0.295903 0 
0.561224 0.280721 0 
0.593236 0.260857 0 
0.525934 0.231581 0 
0.504073 0.236889 0 
0.516824 0.217517 0 
0.220123 0.260485 0 
0.208522 0.25073 0 
0.219101 0.243801 0 
0.896615 0.73597 0 
0.908065 0.732484 0 
0.206608 0.124117 0 
0.188287 0.119148 0 
0.195639 0.132847 0 
0.981972 0.981416 0 
1 1 0 
0.178499 0.782542 0 
0.149641 0.741777 0 
0.137945 0.772483 0 
0.247787 0.0941053 0 
0.266025 0.100935 0 
0.537777 0.745484 0 
0.564718 0.743693 0 
0.561889 0.761325 0 
0.692738 0.617825 0 
0.668549 0.628583 0 
0.695652 0.635993 0 
0.294841 0.190587 0 
0.294845 0.172823 0 
0.281095 0.181503 0 
0.262253 0 0 
0.269334 0.0235797 0 
0.252872 0.0222846 0 
0.265355 0.080175 0 
0.0640876 0.219846 0 
0.0721738 0.204049 0 
0.0547323 0.199704 0 
0.544515 0.882586 0 
0.54152 0.897742 0 
0.557735 0.891 0 
0.724252 0.915111 0 
0.709241 0.923242 0 
0.869534 0.516388 0 
0.843329 0.520358 0 
0.855711 0.551265 0 
0.740805 0.440595 0 
0.740317 0.908647 0 
0.73925 0.922591 0 
0.614905 0.613369 0 
0.630605 0.629149 0 
0.600346 0.633367 0 
0.288732 0.442035 0 
0.317677 0.460863 0 
0.295311 0.470718 0 
0.955988 0.259633 0 
0.966103 0.243967 0 
0.972142 0.263188 0 
0.1605 0.0697043 0 
0.168154 0.0713669 0 
0.16205 0.0627144 0 
0.714521 0.804845 0 
0.711172 0.82323 0 
0.72405 0.813635 0 
0.0879322 0.545464 0 
0.0994513 0.527293 0 
0.109112 0.55411 0 
0.536125 0.773021 0 
0.160322 0.181351 0 
0.163246 0.198168 0 
0.178158 0.18859 0 
0.265622 0.211041 0 
0.109174 0.114506 0 
0.112712 0.127906 0 
0.100734 0.123661 0 
0.0113485 0.0114569 0 
0.00426249 0.0101551 0 
0.0065461 0.00654827 0 
0.254023 0.128587 0 
0.250813 0.201076 0 
0.0133274 0.147998 0 
0.0180245 0.133063 0 
0 0.132005 0 
0.622764 0.703671 0 
0.636846 0.713168 0 
0.149836 0.0880041 0 
0.152222 0.0987119 0 
0.14595 0.0942042 0 
0.919569 0.884998 0 
0.915073 0.873244 0 
0.927579 0.874131 0 
0.268572 0.117823 0 
0.283497 0.122852 0 
0.280579 0.10754 0 
0.556755 0.874468 0 
0.572383 0.881932 0 
0.143329 0.0466907 0 
0.130119 0.0396059 0 
0.145099 0.0299289 0 
0.649642 0.670827 0 
0.631984 0.668308 0 
0.64889 0.64996 0 
0.389545 0.935188 0 
0.354671 0.927275 0 
0.753632 0.916796 0 
0.339983 0.133913 0 
0.357359 0.125322 0 
0.341392 0.117155 0 
0.823246 0.534791 0 
0.823477 0.562209 0 
0.951795 0.496624 0 
0.980084 0.495914 0 
0.958363 0.522107 0 
0.0801423 0.22451 0 
0.0809811 0.212933 0 
0.11501 0.106094 0 
0.122375 0.115156 0 
0.387877 0.342566 0 
0.368095 0.329938 0 
0.366069 0.352367 0 
0.591916 0.914731 0 
0.59843 0.925061 0 
0.588024 0.923212 0 
0.497688 0.803513 0 
0.469282 0.810085 0 
0.485834 0.838744 0 
0.555987 0.328359 0 
0.673265 0.735842 0 
0.66985 0.722782 0 
0.661616 0.730955 0 
0.109926 0.29861 0 
0.125862 0.292728 0 
0.124286 0.308471 0 
0.124635 0.681724 0 
0.098151 0.687408 0 
0.723473 0.646777 0 
0.703097 0.663448 0 
0.971852 0.967063 0 
0.833447 0.916946 0 
0.287814 0.245445 0 
0.282314 0.224128 0 
0.302685 0.230168 0 
0.919239 0.917167 0 
0.92219 0.92725 0 
0.909447 0.926939 0 
0.593367 0.203956 0 
0.565536 0.216252 0 
0.573131 0.194847 0 
0.941454 0.321425 0 
0.931751 0.322979 0 
0.938097 0.331062 0 
0.803675 0.792816 0 
0.812484 0.783246 0 
0.820654 0.797204 0 
0.376901 0.481716 0 
0.366417 0.452595 0 
0.346943 0.472858 0 
0.235463 0.265295 0 
0.58075 0.469973 0 
0.528937 0.451753 0 
0.543482 0.487152 0 
0.80589 0.76532 0 
0.789387 0.773 0 
0.283784 0.916755 0 
0.318837 0.949258 0 
0.324287 0.898575 0 
0.267052 0.477803 0 
0.419627 0.394457 0 
0.0745586 0.238874 0 
0.0292557 0.149701 0 
0.769983 0.162352 0 
0.728739 0.18102 0 
0.726261 0.141682 0 
0.172507 0.169906 0 
0.161743 0.158444 0 
0.606193 0.10228 0 
0.626324 0.0764161 0 
0.634263 0.108215 0 
0.918853 0.590311 0 
0.941844 0.585121 0 
0.941087 0.561563 0 
0.803212 0.806756 0 
0.787968 0.793937 0 
0.788086 0.816509 0 
0 0.00201876 0 
0 0.00468006 0 
0.00146326 0.00361949 0 
0.926758 0.330325 0 
0.933826 0.336406 0 
0.633208 0.971238 0 
0.614369 0.951415 0 
0.651801 0.954783 0 
0.4377 0.412343 0 
0.413634 0.415845 0 
0.689256 0.786223 0 
0.702941 0.773404 0 
0.680866 0.769396 0 
0.393128 0.104837 0 
0.400576 0.129106 0 
0.414781 0.117269 0 
0.0338109 0.107884 0 
0.0400043 0.0961623 0 
0.26882 0.629003 0 
0.254918 0.605722 0 
0.275654 0.597258 0 
0 0.221947 0 
0 0.185878 0 
0.025529 0.192682 0 
0.0989993 0.113518 0 
0.356719 0.14838 0 
0.338923 0.150538 0 
0.772107 0.647274 0 
0.750797 0.660671 0 
0.773599 0.670638 0 
0.141002 0.0888127 0 
0.0958666 0.439068 0 
0.107455 0.461646 0 
0.120148 0.436662 0 
0.901882 0.955629 0 
0.893055 0.944729 0 
0.905525 0.941347 0 
0.134059 0.252987 0 
0.123671 0.257305 0 
0.134472 0.266413 0 
0.116739 0.34188 0 
0.133475 0.344845 0 
0.117425 0.325751 0 
0.606288 0.853574 0 
0.588541 0.870856 0 
0.605812 0.880033 0 
0.504351 0.774655 0 
0.52779 0.805497 0 
0.751496 0.784171 0 
0.142976 0.322024 0 
0.785432 0.680846 0 
0.773016 0.685547 0 
0.928562 0.907539 0 
0.924264 0.896242 0 
0.935404 0.897923 0 
0.033811 0.133556 0 
0.104415 0.276906 0 
0.11452 0.285243 0 
0.119848 0.270833 0 
0.55431 0.857999 0 
0.543012 0.869132 0 
0.537316 0.854889 0 
0.0696827 0.0190947 0 
0.00276949 0.006322 0 
0.316641 0.561858 0 
0.513885 0.853462 0 
0.526505 0.877533 0 
0.491157 0.878632 0 
0.0315756 0.329165 0 
0.0619972 0.30813 0 
0.0313633 0.300678 0 
0.199406 0.8553 0 
0.760006 0.572956 0 
0.741024 0.602002 0 
0.771828 0.59688 0 
0.0781387 0.526878 0 
0.281256 0.200058 0 
0.0292734 0.121974 0 
0.457359 0.112794 0 
0.470474 0.0807103 0 
0.441553 0.0935687 0 
0.153226 0.0644377 0 
0.333331 0.259703 0 
0.319967 0.240308 0 
0.304999 0.254437 0 
0.150243 0.267941 0 
0.145169 0.255772 0 
0.156491 0.255737 0 
0.310915 0.184489 0 
0.0999059 0.340738 0 
0.248441 0.56511 0 
0.223577 0.578727 0 
0.224929 0.555857 0 
0.281507 0.163366 0 
0.543378 0.809052 0 
0.550735 0.796865 0 
0.651366 0.793478 0 
0.623829 0.800702 0 
0.628381 0.775121 0 
0.0882162 0.280511 0 
0.0931631 0.267398 0 
0.802345 0.739838 0 
0.808765 0.750773 0 
0.278081 0.314448 0 
0.661928 0.889434 0 
0.649003 0.872534 0 
0.0340506 0.078704 0 
0.768843 0.622114 0 
0.83747 0.925578 0 
0.833366 0.933321 0 
0.696873 0.576412 0 
0.727191 0.576129 0 
0.713146 0.546136 0 
0.13236 0.814483 0 
0.138482 0.869013 0 
0.434864 0.450589 0 
0.889992 0.921498 0 
0.90113 0.919715 0 
0.769412 0.533615 0 
0.785987 0.535212 0 
0.775308 0.509293 0 
0.124571 0.529234 0 
0.138387 0.508165 0 
0.112756 0.506983 0 
0.0873108 0.624113 0 
0.0724858 0.585589 0 
0.0466805 0.609283 0 
0.732033 0.851069 0 
0.729222 0.867167 0 
0.717585 0.855197 0 
0.063809 0.25742 0 
0.0838174 0.2553 0 
0.710298 0.872315 0 
0.705432 0.856417 0 
0.332657 0.370318 0 
0.346309 0.379386 0 
0.347632 0.360875 0 
0.779252 0.952145 0 
0.789061 0.945143 0 
0.779478 0.935248 0 
0.949099 0.328738 0 
0.729381 0.676391 0 
0.0707368 0.117853 0 
0.0810675 0.117481 0 
0.0801454 0.126807 0 
0.314046 0.165915 0 
0.84376 0.892421 0 
0.854515 0.893622 0 
0.814625 0.702107 0 
0.810588 0.715029 0 
0.406378 0.437895 0 
0.0940286 0.909318 0 
0.136248 1 0 
0.0506498 0.947181 0 
0.871174 0.936215 0 
0.867978 0.924293 0 
0.87863 0.925265 0 
0.152202 0.357516 0 
0.936939 0.862592 0 
0.937805 0.87787 0 
0.0427297 0.050987 0 
0.0471779 0.041684 0 
0.0535019 0.0492835 0 
0.201198 0.109817 0 
0.190003 0.103398 0 
0.524159 0.153945 0 
0.549147 0.130581 0 
0.547982 0.175259 0 
0.957694 0.899459 0 
0.963707 0.908396 0 
0.952121 0.908401 0 
[...]
POINT_DATA 2108
SCALARS Pressure float 1
LOOKUP_TABLE default
9.01832
7.72386
8.29475
5.51942
5.8083
6.01055
42.5696
29.0645
20.4638
-0.893436
1.47173
2.58151
26.2237
27.9582
23.6493
8.26539
7.6484
8.26003
13.4117
12.8071
12.4866
4.13936
3.69572
3.77
29.307
31.3585
29.4588
5.08178
4.68979
4.58588
6.00685
5.77874
6.71007
2.25673
2.87439
2.60329
11.4639
9.84078
10.3649
2.7843
2.84052
2.99438
14.3952
13.1818
11.9721
14.7945
13.2349
13.5341
8.91919
8.112
7.71222
-1.11124
-0.565661
-0.363135
1.3194
1.30824
1.78624
-6.71559
-6.67527
-5.90399
6.79358
5.64457
8.94275
7.18845
7.35272
7.34406
43.0358
48.2629
45.7648
52.6689
49.0015
39.1228
16.7579
15.114
15.5269
2.23011
1.09827
1.90538
34.0456
34.5829
32.9246
4.58833
4.31295
3.77822
7.78404
6.57902
6.43248
8.98116
7.43724
6.92425
7.41826
2.48569
2.43265
3.27748
2.72619
2.38971
2.65879
14.179
4.88223
3.71501
3.97882
8.30564
9.27083
21.1852
21.5722
20.522
-17.5832
-7.66069
-9.35677
-22.2904
17.6277
16.7044
23.4829
26.6343
35.438
34.1512
8.20783
8.4365
4.69944
-3.11283
-2.69105
1.13196
27.4925
10.2265
11.1301
9.41455
11.0683
12.1871
10.9846
33.2244
34.3206
35.1074
6.13854
6.50957
34.6143
38.7256
39.0053
-31.2376
-60.3409
2.51745
2.6898
2.09805
21.7518
20.2154
9.18047
9.14862
8.89699
9.08111
9.27566
8.64409
26.3328
24.6903
27.5204
14.3353
13.5295
12.6908
17.707
24.3078
28.4433
27.0584
6.77036
6.50432
6.74255
6.95034
7.31409
6.8782
7.38098
7.42743
8.6235
6.41496
6.72653
10.6656
10.0232
10.5538
17.7373
17.4162
16.0238
1.94444
1.51262
1.68394
34.48
32.7811
32.0024
5.69169
5.98382
5.3675
5.29382
5.95104
5.59054
8.68128
44.8745
41.738
43.0405
31.9088
63.0962
58.7859
59.8709
285.779
285.484
393.088
25.6765
33.6613
26.701
28.1857
30.4398
8.86596
8.42972
44.7132
46.8445
48.3629
-5.03754
-3.57158
-2.82156
22.0469
20.7252
19.304
7.04177
7.07698
31.8843
33.4264
26.2371
8.80306
9.23418
9.22415
3.01142
2.54342
6.17894
16.4663
14.8416
15.2733
7.83226
7.94141
4.62229
3.33878
5.05085
25.8451
28.0407
63.485
60.2763
22.4147
23.6565
23.4005
6.66683
6.51645
6.39451
7.74287
7.22607
6.88316
12.6251
7.23539
7.4739
7.60847
18.6842
21.1572
19.0796
3.23863
2.64241
8.00978
7.88378
-23.4963
1.43876
30.069
30.1877
27.915
-9.30991
-10.3476
-8.49272
7.88414
9.12024
8.25739
2.67158
2.8526
2.78809
2.24975
2.47943
1.73691
17.3439
18.8278
17.3899
32.6607
13.4572
15.364
14.5571
3.33723
3.24624
1.87538
1.7192
2.67149
14.4333
20.2855
22.4089
28.9407
3.3728
4.35245
3.75933
45.5477
48.0411
4.87622
4.01578
4.51733
6.90862
6.68129
6.13272
1.84126
2.67872
2.31896
579.185
394.624
473.189
3.09672
2.99669
5.85969
6.04748
6.99913
19.2687
19.9614
6.54058
6.0639
6.81401
12.2162
12.853
11.7326
41.9545
52.7113
7.79509
8.13432
9.03495
10.3838
19.4416
24.8149
64.1178
16.2698
17.7752
7.63267
7.39686
7.01562
49.0818
8.09714
7.81565
9.35144
-4.32464
-4.04966
-6.9151
28.0456
26.0777
25.9147
15.1679
16.289
16.6502
7.75635
7.4358
7.44273
8.41543
8.02549
4.17451
19.3996
6.69757
6.55652
-8.29516
-6.58398
-6.2032
32.835
20.7305
20.8396
23.5078
7.31961
6.99425
7.19673
60.6581
396.584
11.7626
6.96326
6.68688
6.22325
9.41216
13.4507
11.5267
1.81006
8.80904
8.73422
8.46852
5.46977
29.0323
34.5681
9.72394
8.03482
9.63537
35.0746
25.6789
26.354
28.4242
27.435
28.8704
30.1158
23.6682
13.9213
9.35399
8.06565
8.90039
25.6239
8.08841
8.33876
7.59777
8.04656
8.10865
18.2843
20.5874
4.48322
3.99777
27.9001
7.47617
7.57931
62.4828
8.15566
1.67241
2.64005
9.72715
9.24529
9.72022
1.5372
1.04733
18.3647
-5.51271
-7.28832
8.73704
8.45513
8.5266
6.54473
7.51947
6.75406
3.56543
4.07998
2.91491
5.55053
5.96945
6.17339
17.7633
21.0658
6.64465
6.57704
23.6106
22.9447
23.801
6.14997
5.75878
5.78959
2.54862
7.16576
54.9745
58.9543
53.4674
21.5912
-0.819527
-1.9295
6.09292
5.57379
19.3444
0.294038
-0.16724
-0.158943
-1.40337
-2.01682
-3.48968
16.673
-0.356211
-2.41936
112.276
119.145
109.104
33.2402
34.8208
8.64415
7.09846
8.49699
-3.74138
-4.69864
-6.59115
8.24049
7.9428
15.1159
5.12754
5.26259
9.66048
8.56135
18.5859
68.489
1.80874
0.95189
9.6357
5.55884
5.96472
4.9482
3.1926
3.86949
2.98818
5.59186
5.5734
4.82776
45.3133
-21.7765
0.265869
0.980058
27.4333
26.7814
29.556
19.3988
-5.23184
-4.0292
2.78819
15.3355
14.0672
66.3063
4.41838
16.3569
18.4599
17.0918
-4.51106
15.5891
3.29553
3.32572
2.80862
16.1872
26.385
13.9637
15.0116
13.5783
2.22347
5.5406
6.09688
6.87253
8.36976
8.58731
8.47205
8.52144
9.71732
1.93274
-0.0101922
1.37983
7.38687
33.9045
35.1601
33.2065
35.9567
35.0924
19.773
175.865
217.216
17.1725
-6.0961
2.97061
3.05545
2.57168
3.13618
2.17561
2.45547
2.57585
2.64626
1.37703
7.42282
15.938
14.9358
9.65509
9.16602
5.75247
-0.826869
0.857672
0.256245
5.42476
5.08882
4.3179
1.34273
1.73273
1.87149
8.11905
8.26954
8.28034
0.0297263
0.919453
6.44215
6.49249
6.43643
3.41052
22.2687
26.8929
22.1865
24.3969
14.1062
7.66514
6.76142
6.78685
31.8631
31.4687
4.78096
4.31636
7.0125
6.81547
7.19725
5.71972
7.0044
4.82655
5.97626
5.21772
38.1451
40.3988
42.0231
2.27167
54.4062
53.4783
56.5074
10.2992
9.7689
7.29341
4.58087
31.1864
16.236
15.421
188.923
25.7903
52.4911
4.12755
8.11688
7.83487
5.26542
4.96675
2.44152
2.68809
6.18889
5.30582
3.69015
6.64922
19.9324
19.4789
21.4485
0.0180083
1.09075
11.9157
12.1487
11.0582
11.1857
11.8005
467.818
610.908
490.677
2.51824
3.24712
4.63037
1.28031
1.63708
2.18027
9.71075
9.56175
11.0618
0.763153
-20.4662
18.5278
31.5572
8.82174
60.4194
31.8883
102.73
10.1917
11.5713
11.1012
8.00314
8.2712
40.1705
42.1849
39.1355
389.687
3.87756
3.92254
12.9862
7.91785
9.71499
6.95295
19.4651
3.53047
3.12609
3.91761
10.9248
30.173
2.60224
7.69169
-0.125824
7.8276
-0.51526
48.3621
4.60198
39.4353
28.4409
25.4565
7.65947
7.34528
-5.43304
14.4863
8.5275
0.343032
3.59265
3.85261
65.6596
68.1978
8.17112
3.01425
42.5075
6.31971
33.0809
3.08034
6.72243
23.9033
10.5727
8.8981
9.968
5.59072
10.112
0.486493
25.451
26.4425
24.4758
8.29864
9.51492
8.68605
9.50077
9.77693
5.19475
7.10637
6.90904
6.65145
6.76814
14.0376
12.5187
47.736
52.1021
47.5478
12.5054
16.8397
19.0886
5.78652
8.20686
0.980487
5.13246
45.7168
8.92582
12.0413
5.31482
148.237
1.87302
9.09947
1.94638
6.69927
-1.4985
-1.03245
6.10745
5.78105
4.54971
7.14972
7.2132
9.44212
42.0262
4.58497
3.65258
7.96428
8.2318
4.70271
41.7609
39.085
36.7511
23.8326
21.0336
23.8494
31.9125
-4.14725
-4.59021
-5.20594
3.36628
1.647
17.0173
38.8224
35.7839
35.1612
6.21275
6.58969
30.8577
24.4681
8.97286
8.77218
25.7101
25.7421
20.5264
4.41478
2.49965
7.66692
7.62073
19.995
14.5897
17.1168
35.799
6.78189
61.1883
54.2171
57.8454
-8.45309
-7.61461
3.1973
4.27541
17.906
39.7702
23.3683
23.2287
27.2454
5.00027
4.67936
18.396
3.63725
4.54571
3.90782
5.65295
6.05649
13.3614
5.87331
6.3241
5.8458
18.4696
5.74775
35.924
11.4456
12.7737
19.651
21.6082
20.3461
-3.46852
-2.88022
74.2037
-1.59249
20.6722
21.9618
-0.731071
-2.44572
37.7879
36.3279
5.36112
7.09499
64.8691
6.5108
35.5109
39.2478
4.70059
8.31001
11.6525
8.62248
35.3179
0.981707
5.47229
4.92904
10.1205
9.13223
17.2532
17.7297
19.5679
20.2746
17.3103
7.32682
4.61531
-1.71952
1.71148
28.2843
14.1728
4.02112
4.48511
22.8689
27.9128
7.3378
7.39737
7.03398
14.0462
16.1082
16.2956
1.03713
22.5826
6.45157
6.10797
8.16891
37.9287
41.6099
8.50621
-15.1931
-3.75656
55.1088
50.4809
3.06284
44.6921
42.9588
6.77568
14.9001
6.05854
6.63394
6.46279
4.8193
5.95787
8.00991
8.93211
39.6379
37.3017
-7.97938
-7.05588
1.97707
2.0592
1.95008
8.09456
-17.6453
-19.9862
-6.32517
4.14465
2.67678
5.09858
5.18658
5.63579
10.1354
11.2821
6.28774
-1.74776
-2.4956
34.0068
2.49031
584.879
25.0737
2.16084
2.90158
2.43542
1.79413
2.66059
1.31847
37.0474
48.115
1.21761
8.36203
1.89361
1.9594
1.97929
15.1864
13.9697
13.1688
4.62914
4.08982
14.3448
5.57156
18.8838
19.9103
21.178
5.5473
13.4503
26.6772
25.5867
1.83647
-7.85678
8.67677
8.51417
7.55913
1.29811
2.75353
3.29905
1.51841
8.68112
11.1252
11.8407
4.97004
4.08633
3.12543
3.42395
5.10996
4.76644
5.53522
3.00645
-1.56265
8.65936
12.8831
-2.83846
-2.56426
-2.03016
6.96195
8.32309
14.7713
3.85095
2.7647
12.7543
2.93475
29.4848
9.64262
4.82083
36.4635
8.35152
390.106
10.0986
5.3662
1.52008
5.27907
5.55946
26.066
5.7315
24.0687
6.27482
4.59116
3.89221
5.27333
51.9612
3.47047
4.15523
55.8425
32.9476
8.26518
8.19599
30.0196
32.7538
31.0541
30.4041
30.3194
31.8042
1.03665
2.26481
0.982169
19.8821
20.0748
21.3682
8.60474
5.80817
5.39859
25.3711
7.06951
7.23622
4.22571
8.8884
9.74214
9.02763
8.49459
9.40585
29.9956
32.7432
29.3138
25.3702
6.83747
6.8487
5.29859
3.22131
3.68161
8.21999
22.1237
15.0544
3.93868
2.07816
2.40845
5.36905
1.62184
7.452
7.67176
7.00099
7.15651
18.4528
10.0597
1.38625
1.80996
29.6694
4.09635
5.87562
5.83965
2.13315
24.7033
30.8907
25.0396
14.0961
28.9821
8.80812
7.22374
7.02652
7.11978
10.5186
11.6169
10.6272
4.44203
4.2441
5.15158
32.8739
29.7617
422.099
23.872
13.8997
6.72925
2.607
0.584184
1.91428
3.17523
3.42556
7.64701
7.23409
2.32302
127.63
5.21606
4.69538
5.3321
14.3808
23.6404
3.76838
9.04408
9.87292
4.01785
10.4128
0.101622
1.03854
8.01406
6.6888
5.56162
6.92579
-2.42418
-3.16619
48.3546
54.4908
30.8716
-0.368262
8.23064
25.802
140.345
0.578377
20.3407
1.27208
4.26839
4.74286
5.225
-9.72517
55.3441
5.59443
8.39662
29.4089
28.0624
7.24009
30.6599
2.87811
8.2072
7.58945
8.1887
3.40481
36.389
2.73042
6.71172
7.72771
9.7073
32.4961
23.4917
1.42901
15.1519
4.76877
2.03948
2.26505
22.5265
21.2318
12.3337
11.5522
9.45799
9.81782
30.7295
10.3445
6.74647
16.9652
6.15529
5.15171
5.24323
4.32111
332.393
10.3794
-10.4199
1.98689
2.05223
5.115
27.7883
6.29914
6.18325
5.28299
-1.62065
13.5883
7.83967
6.24181
8.55434
32.7583
0.656722
8.40981
2.10471
6.64378
8.27637
21.1964
10.8947
9.40008
2.0231
3.41735
5.31359
8.23127
6.36497
6.77386
10.2603
94.8439
30.524
32.4432
12.931
11.2566
6.03325
8.64278
54.1403
51.2791
52.1719
50.6963
6.65146
7.58659
5.61497
4.82311
4.21412
29.1872
27.9459
28.8739
4.97194
2.95379
2.12984
28.226
8.20607
9.07473
7.32533
28.1225
1.89167
1.81624
8.50304
-1.14814
-2.04001
155.813
6.82087
45.3656
60.6998
5.555
6.20719
5.14189
34.1335
6.2703
6.50554
7.23082
64.3419
7.08661
37.9644
15.0779
40.2043
1.56501
10.4957
105.282
7.2699
7.50866
1.62123
6.57094
5.82098
-7.17715
-7.14331
12.3708
14.722
5.46887
41.5646
7.37448
7.41577
18.8564
12.9345
17.6431
5.39023
1.88106
10.5982
11.3115
-0.121893
7.23002
6.93038
9.67774
64.5945
5.05724
59.4553
70.3875
6.83632
12.7186
25.1312
4.99696
4.74744
5.52223
91.6415
-12.4594
-14.8017
-14.7841
30.9876
18.0219
6.98338
28.7904
3.71953
6.87472
2.9253
11.0277
2.04643
9.5428
1.34884
39.0368
6.04184
7.12608
15.6278
18.6782
6.52149
2.33894
-9.27077
7.02017
270.099
22.2714
4.66681
7.09018
6.90369
55.1792
6.39511
7.77954
6.98087
6.30095
17.9294
-6.5591
-6.10553
7.87045
6.74129
5.29478
52.6402
50.2073
6.27341
10.3024
34.5264
30.5745
31.1286
1.51499
4.91821
4.181
10.3852
4.89757
32.578
2.35071
15.3276
16.8833
9.52282
6.89346
7.49234
3.6767
4.14282
-5.10824
-4.0563
-4.17322
112.665
2.94175
4.45491
29.4992
28.4987
29.4369
100.082
141.25
5.49366
6.16194
60.2823
15.2755
26.7695
6.10534
6.32238
24.8818
-0.6063
29.3027
79.4201
79.6156
11.3064
14.3232
9.84303
8.16994
7.10587
8.08791
22.4218
11.7398
5.80187
39.7656
1.8831
11.2775
5.832
22.3896
32.6979
5.89908
21.0659
27.7232
27.7814
1.89912
2.16264
13.4629
12.8891
2.21629
2.00688
9.56615
7.86491
21.8817
7.27945
0.0664205
-0.303386
-0.569755
57.4636
5.7509
5.20722
2.93677
11.7247
7.87785
2.17984
2.98223
26.1428
20.8527
6.54363
23.4041
7.92713
28.8349
7.48577
15.6679
-6.20778
1.08428
3.66245
6.38162
7.17313
28.8982
67.5196
5.95045
-11.8174
26.1652
18.5625
86.3029
8.73736
10.2231
3.26221
1.44653
5.50158
37.1019
24.6121
-0.211526
11.2783
3.58125
7.63962
36.4229
34.1522
0.63287
28.8841
38.5229
12.34
0.836989
2.40153
14.8734
7.19819
2.70883
10.4594
2.87941
8.59834
6.40145
30.632
6.62775
20.9465
27.3424
39.1879
0.265535
2.37264
60.0184
12.4526
5.42867
5.82558
21.0856
22.2813
3.3616
-1.27749
-0.866419
11.4883
6.66093
7.03744
6.83942
43.3475
4.90487
4.77803
43.2347
7.28526
3.58826
56.6071
7.34847
6.09394
6.20293
5.80588
5.55195
7.73396
-5.22442
7.09134
10.2293
8.50679
8.70755
7.36245
7.83001
41.2254
20.1149
32.5179
29.3038
5.55129
10.9251
3.67243
2.39258
13.7695
7.50178
18.8805
10.3689
10.1016
3.89054
2.52926
39.6647
7.92632
2.36606
2.7502
18.6169
-2.14485
8.66721
16.2395
14.3969
18.9833
6.31691
5.54926
38.2671
34.7197
-4.53569
3.52783
2.76008
4.01116
-3.49283
4.89477
11.2566
4.28765
19.4762
17.3939
48.1058
12.5172
21.2094
18.1272
7.34144
7.17993
26.2295
29.7203
18.8377
18.3989
16.2234
6.42954
7.08627
15.2129
11.1338
8.59041
77.5409
75.4992
12.4286
3.25759
5.01548
31.3359
36.3633
26.3806
6.82835
18.8537
3.67959
8.74162
49.3084
5.78645
-1.18991
1.93059
2.58529
-4.48066
-3.13393
4.46008
30.5956
4.34528
-1.13109
28.9162
1.29563
0.100282
24.9623
9.15531
55.1509
10.482
9.62552
35.7993
37.4861
60.221
71.6762
3.23598
3.96377
38.7725
36.927
49.3437
15.0964
16.7223
3.80469
13.7628
6.4079
7.15439
7.55407
7.62004
23.1823
4.11565
7.19457
26.4643
40.3166
17.934
17.9999
7.32291
39.6214
37.8858
6.07552
8.14026
11.698
7.66386
2.72367
6.48173
6.12048
40.6791
6.45828
43.1486
7.8545
6.09716
0.275413
7.52169
13.7957
5.91736
6.081
4.49045
5.29936
5.49666
-4.35701
6.2846
22.345
44.5
7.17465
11.1694
10.6019
2.93877
9.66038
4.14841
52.6906
6.24372
5.33461
8.80425
10.7646
3.52571
7.06143
2.03543
13.0734
101.603
2.74709
4.6007
4.73487
0.876503
10.5212
24.5538
35.6113
36.6019
15.479
-5.77834
10.5895
0.915293
10.864
5.95178
0.0280505
1.07772
1.69712
6.77717
12.9419
13.2547
5.52703
4.86813
5.15294
5.14545
3.62597
97.1634
98.8093
31.428
-2.09776
6.30016
15.8788
19.9113
38.5082
18.8671
7.70171
43.8859
4.65968
4.31651
7.37943
12.5746
7.28918
-4.75963
2.60965
13.3543
6.61276
18.5056
60.6856
45.9764
50.9302
28.268
-1.07581
7.23162
7.27436
3.91609
7.50618
51.8649
45.5472
0.551195
1.39202
2.94523
-6.50664
30.2273
5.94856
6.82062
-0.497812
-6.49294
81.3243
11.2073
10.6938
9.98812
17.0226
19.3792
33.2935
21.8872
56.3291
55.2477
4.42609
34.5008
16.6067
8.90662
-0.213635
1.17513
21.417
5.40715
94.8957
38.1362
129.978
7.67828
17.6087
18.5248
207.765
7.17925
6.19552
9.81014
3.95404
10.6054
3.75443
2.65312
2.94626
16.1396
120.798
12.4378
6.52745
-0.816736
7.35377
8.15186
7.25504
81.5221
57.6113
6.75724
6.74183
29.6388
-2.90764
30.1359
22.7602
6.67147
6.88264
57.6463
19.4139
6.95604
4.44804
26.7122
7.32867
7.06761
7.77237
27.9065
1.85664
8.39083
30.9797
8.13126
7.88891
33.4855
4.04611
4.06337
3.40734
11.8641
5.24502
5.29696
5.21478
1.9895
79.8927
81.7938
3.51502
3.63133
5.74746
-18.2255
-1.15673
17.2709
69.0602
7.55161
36.0453
5.54614
45.1183
4.08883
3.70749
5.46812
65.9037
5.09827
5.47817
19.9877
-1.79137
47.9225
40.8479
-3.98831
3.11565
5.45749
4.04983
11.4076
12.0221
34.8735
2.60454
59.1191
51.5118
1.53575
14.7611
2.06801
3.77284
7.48324
5.51242
-2.47859
32.7537
8.017
7.90785
0.535618
12.0355
5.02016
-7.89863
24.2178
33.7219
6.78103
12.989
149.418
27.2384
7.0784
4.62347
66.2003
6.91281
7.15857
5.11066
45.4693
-3.74996
13.5956
12.9539
5.83481
6.23965
5.39329
5.46938
5.9416
4.66549
-3.35914
5.14909
39.2709
86.2695
70.9067
6.97682
6.5288
25.4948
4.66309
5.11699
6.25912
2.18389
9.13417
7.23348
7.16485
9.39865
8.48256
23.452
12.4651
7.22235
93.0757
8.64561
7.68517
34.5419
48.6058
83.3512
20.3499
4.6841
13.4693
19.5859
3.37372
5.46346
10.0211
-3.32059
5.47177
-2.4628
1.08928
6.59162
4.0204
14.9371
7.16916
21.1857
14.3009
5.51171
1.73432
5.27359
11.9288
89.8793
86.8663
8.99523
32.0793
40.7066
14.3053
3.26164
15.782
4.33667
13.0496
6.8979
-9.59171
5.9185
-12.0749
23.6684
39.3543
37.2978
13.4845
46.2788
14.2805
6.00013
4.50206
2.94754
10.01
0.422964
-0.200651
31.8283
51.9484
8.47766
15.1921
6.36988
48.7998
71.5221
-0.420172
0.527212
7.81645
11.1983
2.52302
0.930988
4.7178
11.718
11.2121
6.64108
30.4911
51.8544
3.31747
10.5445
11.272
92.0985
6.04335
33.3012
3.58529
-13.5253
43.3577
-1.92754
-6.17
-4.99757
-5.22287
1.67548
9.98576
1.82077
0.772155
5.18847
23.7907
12.0815
8.89804
12.6533
13.483
10.3845
21.9028
79.1224
6.07608
4.66305
1.94486
31.4291
31.5131
5.18731
30.0763
3.78507
66.7607
3.57475
0.792704
0.916522
4.22893
5.79821
6.74222
6.31053
168.534
4.62494
5.70745
2.92695
17.0716
71.7686
2.35385
7.96587
23.0134
33
7.79141
10.441
75.9474
6.76815
2.22174
1.82457
-11.6826
-2.70176
24.1603
44.5659
45.8259
22.807
36.3166
33.3263
13.3784
4.97811
10.7062
28.9662
12.6469
4.79206
5.54716
5.48082
7.39897
6.44447
5.87053
5.98026
30.5325
3.96457
4.76641
4.06531
2.61869
14.1312
32.0045
3.38814
12.2674
32.2429
42.685
170.636
211.946
15.9968
7.90731
6.07514
7.86723
-0.999002
4.78358
8.93489
47.788
48.2232
926.529
9.24305
6.10371
43.2472
-5.002
9.87361
9.20567
24.6653
12.4198
26.0256
4.12621
5.36612
11.9738
7.20855
7.95476
6.8601
7.53684
37.4591
23.6087
7.03416
2.79051
7.13873
14.6901
3.12851
12.9358
3.18469
6.86627
2.48643
4.32939
-9.48055
15.4855
67.7915
29.9436
22.9363
11.5857
2.5052
7.1001
28.6102
-12.5182
4.98667
13.5735
25.3765
11.8774
6.22668
3.04768
43.0972
7.85301
2.97664
6.8353
4.6521
12.4092
8.95229
8.60991
-4.38731
4.70048
22.2442
183.445
7.02519
3.24115
156.808
6.21527
4.02495
-1.53391
7.02741
SCALARS Saturation float 1
LOOKUP_TABLE default
0
0
0
0
0
0
0.138519
0.175695
0
0
0
0
0
0
0
0
0
0
0
0
0
0
0
0
0
0
0
0
0
0
0
0
0
0
0
0
0
0
0
0
0
0
0
0
0
0
0
0
0
0
0
0
0
0
0
0
0
0
0
0
0
0
0
0
0
0
0
0
0
0.196922
0.0901403
0.112084
0
0
0
0
0
0
0
0
0
0
0
0
0
0
0
0
0
0
0
0
0
0
0
0
0
0
0
0
0
0
0
0
0
0
0
0
0
0
0
0
0
0
0
0
0
0
0
0
0
0
0
0
0
0
0
0
0
0
0
0
0
0
0
0
0
0
0
0
0
0
0
0
0
0
0
0
0
0
0
0
0
0
0
0
0
0
0
0
0
0
0
0
0
0
0
0
0
0
0
0
0
0
0
0
0
0
0
0
0
0
0
0
0
0
0
0
0
0
0
0
0
0
0
0
0
0.882406
0.897395
0.932898
0
0
0
0
0
0
0
0
0
0
0
0
0
0
0
0
0
0
0
0
0
0
0
0
0
0
0
0
0
0
0
0
0
0
0
0
0
0
0
0
0
0
0
0
0
0
0
0
0
0
0
0
0
0
0
0
0
0
0
0
0
0
0
0
0
0
0
0
0
0
0
0
0
0
0
0
0
0
0
0
0
0
0
0
0
0
0
0
0
0
0
0
0
0
0
0
0
0
0
0
0
0
0
0
0
0
0.979812
0.953199
0.963443
0
0
0
0
0
0
0
0
0
0
0
0
0
0
0.0378888
0
0
0
0
0
0
0
0
0
0
0
0
0
0
0
0
0
0
0
0
0
0
0
0
0
0
0
0
0
0
0
0
0
0
0
0
0
0
0
0
0
0
0
0
0.30294
0.936095
0
0
0
0
0
0
0
0
0
0
0
0
0
0
0
0
0
0
0
0
0
0
0
0
0
0
0
0
0
0
0
0
0
0
0
0
0
0
0
0
0
0
0.212544
0
0
0
0
0
0
0
0
0
0
0
0
0
0
0
0
0
0
0
0
0
0
0
0
0
0
0
0
0
0
0
0
0
0
0
0
0
0
0
0
0
0
0
0
0
0
0
0
0
0
0
0
0
0.489609
0.527712
0.46438
0
0
0
0
0
0
0
0
0
0
0
0
0
0
0
0
0.314062
0
0
0
0
0
0
0
0
0
0
0
0
0
0
0
0
0
0
0
0
0
0
0
0
0
0
0
0
0
0
0
0
0
0
0
0
0
0
0
0
0
0
0
0
0
0
0
0
0
0
0
0
0
0
0
0
0
0
0
0.807431
0.857381
0
0
0
0
0
0
0
0
0
0
0
0
0
0
0
0
0
0
0
0
0
0
0
0
0
0
0
0
0
0
0
0
0
0
0
0
0
0
0
0
0
0
0
0
0
0
0
0
0
0
0
0
0
0
0
0
0
0
0
0
0
0
0
0
0
0
0
0
0
0.918116
0
0.278708
0
0
0
0
0
0
0
0
0
0
0
0
0
0
0
0
0
0
0
0
0
0.962894
0.981899
0.963023
0
0
0
0
0
0
0
0
0
0
0
0
0
0
0.505931
0.606288
0.61981
0
0
0
0
0
0
0
0
0.934887
0
0
0
0
0
0
0
0
0
0
0
0
0
0
0
0
0
0
0
0
0
0
0
0
0
0
0
0
0
0
0
0
0
0
0
0
0
0
0
0
0
0
0
0
0
0
0
0
0
0
0
0
0
0
0
0
0
0
0
0
0
0
0
0
0
0
0
0
0
0
0
0
0
0
0
0.871866
0
0
0
0
0
0
0
0
0
0
0
0
0
0
0
0
0
0
0
0
0
0
0
0
0
0
0
0
0
0
0
0
0
0
0
0
0
0
0
0
0
0
0
0
0
0
0
0
0
0
0
0
0
0
0
0
0
0
0
0
0
0
0
0
0
0
0
0
0
0
0
0
0
0
0
0
0
0
0
0
0
0
0
0
0
0
0.42817
0
0
0
0
0
0
0
0
0
0
0
0
0
0
0
0
0
0
0
0
0
0
0
0
0
0
0
0
0
0
0
0
0
0
0
0
0
0
0
0
0
0
0
0
0
0
0
0
0
0
0
0
0
0
0
0
0
0
0
0
0
0
0
0
0
0
0
0
0
0
0
0
0
0
0
0
0
0
0
0
0
0
0
0
0
0
0
0
0
0
0
0.979059
0
0
0
0
0
0
0
0.0142479
0.111335
0
0
0
0
0
0
0
0
0
0
0
0
0
0
0
0
0
0
0
0
0
0
0
0
0
0
0
0
0
0
0
0
0
0
0
0
0
0
0
0
0
0
0
0
0
0
0
0
0
0
0
0
0
0
0
0
0
0.951206
0
0
0
0
0
0
0
0
0
0
0
0
0
0
0
0
0
0
0
0
0
0
0
0
0
0
0
0
0
0
0
0
0
0
0
0
0
0
0
0
0
0
0
0
0
0
0
0
0
0
0
0
0
0
0
0
0
0
0
0
0
0
0
0
0
0
0
0
0
0
0
0
0
0
0
0
0
0
0
0
0
0
0
0
0
0
0
0
0
0
0.949479
0
0
0
0
0
0
0
0
0
0
0
0.563888
0
0
0
0
0
0
0
0
0
0
0
0
0
0
0
0
0
0
0
0
0
0
0
0
0.725067
0
0
0
0
0
0
0
0
0
0
0
0
0
0
0
0
0
0
0
0
0
0
0
0
0
0
0
0
0
0
0
0
0
0
0
0
0
0
0
0
0
0
0
0
0
0.937618
0
0
0
0
0
0
0
0
0
0
0
0
0
0
0
0
0
0
0
0
0
0
0
0
0
0
0
0
0
0
0.495211
0
0
0
0
0
0
0
0
0
0
0
0
0
0
0
0
0
0
0
0
0
0
0
0
0
0
0
0
0
0
0
0.689707
0
0
0
0
0
0
0
0
0
0
0
0
0
0
0
0
0
0.559929
0
0
0
0
0
0
0
0
0
0
0
0
0
0
0
0
0
0
0
0
0
0
0
0
0
0
0
0.0426937
0
0
0
0
0
0
0.416051
0
0
0
0
0
0
0
0
0
0
0
0
0
0
0
0
0
0
0
0
0
0
0
0.889463
0
0
0
0
0.395279
0
0
0
0
0
0
0
0
0
0
0
0
0
0
0
0
0
0
0
0
0
0
0
0
0
0
0
0
0
0
0
0
0
0