# vtk DataFile Version 2.0
Two phases flow simulation
ASCII
DATASET UNSTRUCTURED_GRID
POINTS 142 float
1 0 0 
1 1 0 
0 1 0 
0 0 0 
1 0.1 0 
1 0.2 0 
1 0.3 0 
1 0.4 0 
1 0.5 0 
1 0.6 0 
1 0.7 0 
1 0.8 0 
1 0.9 0 
0.9 1 0 
0.8 1 0 
0.7 1 0 
0.6 1 0 
0.5 1 0 
0.4 1 0 
0.3 1 0 
0.2 1 0 
0.1 1 0 
0 0.9 0 
0 0.8 0 
0 0.7 0 
0 0.6 0 
0 0.5 0 
0 0.4 0 
0 0.3 0 
0 0.2 0 
0 0.1 0 
0.1 0 0 
0.2 0 0 
0.3 0 0 
0.4 0 0 
0.5 0 0 
0.6 0 0 
0.7 0 0 
0.8 0 0 
0.9 0 0 
0.5 0.5 0 
0.707143 0.707143 0 
0.292857 0.707143 0 
0.707143 0.292857 0 
0.292857 0.292857 0 
0.5 0.780314 0 
0.225607 0.490233 0 
0.774402 0.509828 0 
0.509767 0.225607 0 
0.829497 0.829497 0 
0.170503 0.829497 0 
0.829497 0.170503 0 
0.170503 0.170503 0 
0.64071 0.848866 0 
0.151134 0.64071 0 
0.358209 0.848224 0 
0.848224 0.641791 0 
0.848866 0.35929 0 
0.151786 0.358281 0 
0.35929 0.151134 0 
0.641171 0.15154 0 
0.566986 0.640157 0 
0.359843 0.566986 0 
0.640157 0.433014 0 
0.433014 0.359843 0 
0.436791 0.671061 0 
0.666173 0.558699 0 
0.342315 0.435671 0 
0.558699 0.333827 0 
0.461122 0.88999 0 
0.11013 0.460873 0 
0.88999 0.538878 0 
0.539127 0.11013 0 
0.739202 0.90196 0 
0.0980397 0.739202 0 
0.90196 0.260798 0 
0.260798 0.0980397 0 
0.901397 0.739825 0 
0.259816 0.901742 0 
0.740081 0.0981967 0 
0.0986054 0.26018 0 
0.604121 0.745283 0 
0.254717 0.604121 0 
0.745283 0.395879 0 
0.395879 0.254717 0 
0.384705 0.750521 0 
0.750521 0.615295 0 
0.249479 0.384705 0 
0.615295 0.249479 0 
0.900122 0.900122 0 
0.0998781 0.900122 0 
0.900122 0.0998781 0 
0.0998781 0.0998781 0 
0.567104 0.914138 0 
0.0855491 0.566223 0 
0.914466 0.433747 0 
0.432923 0.0858756 0 
0.795936 0.727321 0 
0.272639 0.795975 0 
0.72728 0.203992 0 
0.204065 0.272688 0 
0.727794 0.801265 0 
0.198735 0.727794 0 
0.801265 0.272206 0 
0.272206 0.198735 0 
0.484302 0.588611 0 
0.57887 0.544012 0 
0.409677 0.491135 0 
0.546254 0.423012 0 
0.651952 0.642499 0 
0.349689 0.657295 0 
0.642499 0.348048 0 
0.348048 0.357501 0 
0.65 0.932418 0 
0.0675817 0.65 0 
0.932418 0.35 0 
0.350401 0.0672005 0 
0.928797 0.646223 0 
0.645989 0.0704553 0 
0.353886 0.929467 0 
0.0712205 0.353753 0 
0.820102 0.920029 0 
0.0799714 0.820102 0 
0.920029 0.179898 0 
0.179898 0.0799714 0 
0.920029 0.820102 0 
0.820102 0.0799714 0 
0.179898 0.920029 0 
0.0799714 0.179898 0 
0.514032 0.700934 0 
0.311977 0.51643 0 
0.704647 0.478226 0 
0.485968 0.299066 0 
0.557508 0.833501 0 
0.167994 0.555617 0 
0.832023 0.444358 0 
0.443831 0.167306 0 
0.428218 0.818156 0 
0.181816 0.429108 0 
0.818156 0.571782 0 
0.570892 0.181816 0 
0.461024 0.432542 0 

CELLS 242 968
3 44 104 84 
3 26 27 70 
3 27 120 70 
3 25 114 24 
3 84 104 59 
3 44 84 112 
3 25 26 94 
3 26 70 94 
3 25 94 114 
3 63 66 106 
3 49 97 77 
3 85 45 137 
3 63 131 66 
3 54 114 94 
3 85 137 55 
3 87 44 112 
3 8 9 71 
3 49 121 73 
3 44 100 104 
3 69 137 45 
3 106 108 63 
3 69 55 137 
3 61 106 109 
3 8 71 95 
3 69 119 55 
3 9 117 71 
3 85 42 110 
3 76 59 104 
3 55 119 78 
3 57 115 95 
3 18 19 119 
3 87 112 67 
3 70 134 94 
3 61 105 106 
3 18 119 69 
3 56 77 97 
3 71 56 139 
3 54 94 134 
3 83 131 63 
3 19 78 119 
3 87 100 44 
3 7 95 115 
3 54 74 114 
3 70 120 58 
3 24 114 74 
3 49 89 121 
3 71 139 47 
3 65 45 85 
3 14 73 121 
3 84 59 136 
3 27 28 120 
3 54 82 102 
3 40 108 106 
3 13 14 121 
3 0 91 39 
3 85 55 98 
3 49 101 97 
3 61 81 129 
3 6 7 115 
3 71 135 95 
3 50 78 127 
3 69 45 133 
3 54 102 74 
3 108 111 63 
3 86 56 97 
3 88 140 60 
3 45 129 81 
3 43 99 103 
3 70 58 138 
3 106 66 109 
3 70 138 46 
3 61 109 81 
3 54 134 82 
3 71 117 56 
3 51 126 91 
3 90 122 50 
3 50 122 74 
3 35 36 72 
3 55 78 98 
3 2 90 21 
3 42 82 110 
3 51 75 103 
3 6 115 75 
3 85 110 65 
3 57 75 115 
3 66 131 47 
3 72 60 140 
3 43 103 83 
3 7 8 95 
3 13 121 89 
3 53 101 73 
3 40 106 105 
3 1 13 89 
3 2 22 90 
3 76 116 59 
3 19 20 78 
3 49 77 125 
3 51 103 99 
3 41 86 97 
3 42 102 82 
3 50 74 102 
3 70 46 134 
3 86 139 56 
3 64 112 84 
3 83 63 111 
3 17 18 69 
3 34 116 33 
3 0 4 91 
3 30 92 128 
3 85 98 42 
3 56 117 77 
3 53 81 101 
3 35 96 34 
3 49 73 101 
3 46 87 67 
3 1 89 12 
3 53 73 113 
3 68 111 108 
3 61 129 105 
3 51 91 123 
3 53 133 81 
3 43 83 111 
3 45 81 133 
3 50 98 78 
3 87 138 58 
3 64 67 112 
3 86 47 139 
3 87 46 138 
3 57 103 75 
3 65 129 45 
3 43 111 88 
3 57 95 135 
3 90 50 127 
3 71 47 135 
3 22 122 90 
3 50 102 98 
3 53 93 133 
3 52 104 100 
3 39 91 126 
3 83 47 131 
3 87 58 100 
3 36 37 118 
3 10 117 9 
3 57 83 103 
3 41 97 101 
3 15 73 14 
3 42 98 102 
3 51 123 75 
3 66 47 86 
3 86 109 66 
3 96 59 116 
3 68 88 111 
3 38 39 126 
3 20 127 78 
3 52 128 92 
3 23 24 74 
3 53 113 93 
3 52 76 104 
3 72 118 60 
3 79 60 118 
3 51 79 126 
3 31 92 3 
3 43 88 99 
3 88 60 99 
3 10 77 117 
3 36 118 72 
3 40 141 108 
3 22 23 122 
3 21 90 127 
3 69 133 93 
3 34 96 116 
3 67 141 107 
3 33 116 76 
3 3 92 30 
3 23 74 122 
3 62 110 82 
3 48 84 136 
3 79 99 60 
3 46 82 134 
3 15 16 113 
3 40 107 141 
3 96 136 59 
3 58 120 80 
3 32 33 76 
3 17 69 93 
3 68 108 64 
3 41 109 86 
3 16 93 113 
3 16 17 93 
3 49 125 89 
3 31 124 92 
3 29 30 128 
3 51 99 79 
3 41 81 109 
3 28 80 120 
3 40 105 107 
3 46 67 130 
3 20 21 127 
3 67 107 130 
3 15 113 73 
3 10 11 77 
3 11 125 77 
3 48 140 88 
3 68 48 88 
3 64 141 67 
3 6 75 5 
3 38 126 79 
3 41 101 81 
3 57 135 83 
3 48 132 84 
3 72 140 48 
3 32 76 124 
3 68 132 48 
3 31 32 124 
3 62 65 110 
3 35 72 96 
3 4 123 91 
3 64 84 132 
3 29 128 80 
3 68 64 132 
3 46 130 82 
3 58 80 100 
3 52 80 128 
3 52 92 124 
3 12 89 125 
3 65 105 129 
3 83 135 47 
3 12 125 11 
3 38 79 37 
3 108 141 64 
3 5 75 123 
3 62 82 130 
3 37 79 118 
3 52 124 76 
3 52 100 80 
3 62 107 105 
3 72 48 136 
3 4 5 123 
3 62 130 107 
3 72 136 96 
3 62 105 65 
3 28 29 80 

CELL_TYPES 242
5
5
5
5
5
5
5
5
5
5
5
5
5
5
5
5
5
5
5
5
5
5
5
5
5
5
5
5
5
5
5
5
5
5
5
5
5
5
5
5
5
5
5
5
5
5
5
5
5
5
5
5
5
5
5
5
5
5
5
5
5
5
5
5
5
5
5
5
5
5
5
5
5
5
5
5
5
5
5
5
5
5
5
5
5
5
5
5
5
5
5
5
5
5
5
5
5
5
5
5
5
5
5
5
5
5
5
5
5
5
5
5
5
5
5
5
5
5
5
5
5
5
5
5
5
5
5
5
5
5
5
5
5
5
5
5
5
5
5
5
5
5
5
5
5
5
5
5
5
5
5
5
5
5
5
5
5
5
5
5
5
5
5
5
5
5
5
5
5
5
5
5
5
5
5
5
5
5
5
5
5
5
5
5
5
5
5
5
5
5
5
5
5
5
5
5
5
5
5
5
5
5
5
5
5
5
5
5
5
5
5
5
5
5
5
5
5
5
5
5
5
5
5
5
5
5
5
5
5
5
5
5
5
5
5
5
5
5
5
5
5
5

POINT_DATA 142
SCALARS Pressure float 1
LOOKUP_TABLE default
0
-36.0449
0
36.0087
0.00406379
0.0166269
0.00261074
-0.147653
-0.664521
-1.89807
-4.29315
-8.5491
-16.4816
-16.499
-8.58181
-4.33712
-1.96564
-0.719061
-0.156451
-0.000979375
0.0132955
0.00288539
-0.00476665
-0.0178943
-0.0040166
0.147736
0.667534
1.89888
4.27952
8.52024
16.4457
16.4661
8.55582
4.31675
1.94877
0.708397
0.152445
-0.000322786
-0.0143396
-0.00357401
-0.0373889
-7.50962
-0.0173485
0.0170193
7.46119
-2.35826
2.54604
-2.5455
2.16878
-13.7671
-0.012303
0.0107137
13.7283
-5.56089
0.385912
-0.442998
-5.58898
-0.384605
5.56074
5.541
0.439566
-3.39339
0.78112
-0.807915
3.34496
-1.15504
-3.45812
3.43938
1.17908
-1.14423
2.23593
-2.22906
1.1279
-8.82911
0.0288055
-0.0302038
8.80203
-8.84083
-0.0535458
0.0519087
8.80802
-5.07038
0.800362
-0.785906
5.05328
-0.7361
-5.39057
5.34252
0.719772
-19.6138
-0.00361894
0.0024866
19.5771
-2.56919
0.673676
-0.670548
2.54897
-9.34962
-0.125748
0.12337
9.30447
-9.40381
0.0782461
-0.0788049
9.36951
-1.16304
-2.08518
1.49718
0.448588
-5.13876
-0.0759378
0.0907745
5.07931
-4.40131
0.170038
-0.170165
4.36046
-4.32252
0.226523
-0.229931
4.30985
-13.4363
-0.0068577
0.00548458
13.4039
-13.4156
0.00373607
-0.00504291
13.3793
-2.71177
1.94005
-1.90753
2.71192
-3.25797
1.18762
-1.18112
3.21103
-1.11225
3.71964
-3.7573
1.10474
1.74848
SCALARS Saturation float 1
LOOKUP_TABLE default
0
0
0
1
0
0
0
0
0
0
0
0
0
0
0
0
0
0
0
0
0
0
0
0
0
0
0
0
0
0
0
0
0
0
0
0
0
0
0
0
0
0
0
0
0
0
0
0
0
0
0
0
0
0
0
0
0
0
0
0
0
0
0
0
0
0
0
0
0
0
0
0
0
0
0
0
0
0
0
0
0
0
0
0
0
0
0
0
0
0
0
0
0
0
0
0
0
0
0
0
0
0
0
0
0
0
0
0
0
0
0
0
0
0
0
0
0
0
0
0
0
0
0
0
0
0
0
0
0
0
0
0
0
0
0
0
0
0
0
0
0
0

CELL_DATA 242
SCALARS LevelOfRefinement int 1 
LOOKUP_TABLE default 
0
0
0
0
0
0
0
0
0
0
0
0
0
0
0
0
0
0
0
0
0
0
0
0
0
0
0
0
0
0
0
0
0
0
0
0
0
0
0
0
0
0
0
0
0
0
0
0
0
0
0
0
0
0
0
0
0
0
0
0
0
0
0
0
0
0
0
0
0
0
0
0
0
0
0
0
0
0
0
0
0
0
0
0
0
0
0
0
0
0
0
0
0
0
0
0
0
0
0
0
0
0
0
0
0
0
0
0
0
0
0
0
0
0
0
0
0
0
0
0
0
0
0
0
0
0
0
0
0
0
0
0
0
0
0
0
0
0
0
0
0
0
0
0
0
0
0
0
0
0
0
0
0
0
0
0
0
0
0
0
0
0
0
0
0
0
0
0
0
0
0
0
0
0
0
0
0
0
0
0
0
0
0
0
0
0
0
0
0
0
0
0
0
0
0
0
0
0
0
0
0
0
0
0
0
0
0
0
0
0
0
0
0
0
0
0
0
0
0
0
0
0
0
0
0
0
0
0
0
0
0
0
0
0
0
0
0
0
0
0
0
0
