# vtk DataFile Version 2.0
Two phases flow simulation
ASCII
DATASET UNSTRUCTURED_GRID
POINTS 2034 float
0.834754 0.884375 0 
0.84376 0.892421 0 
0.831551 0.894449 0 
0.766125 0.781612 0 
0.777953 0.778189 0 
0.76933 0.767223 0 
0.369558 0.646565 0 
0.348317 0.627099 0 
0.341166 0.653158 0 
0.154546 0.0533281 0 
0.169139 0.0522916 0 
0.158559 0.0395656 0 
0.725099 0.898615 0 
0.703734 0.904949 0 
0.709021 0.889085 0 
0.816042 0.666388 0 
0.814018 0.680632 0 
0.80045 0.679319 0 
0.430335 0 0 
0.414186 0.0300978 0 
0.395459 0 0 
0.0578905 0.0252335 0 
0.0569827 0.0379604 0 
0.0689514 0.0368035 0 
0.331838 0.771111 0 
0.375258 0.771513 0 
0.351246 0.745094 0 
1 0.670086 0 
0.969916 0.647567 0 
1 0.625048 0 
0.902903 1 0 
0.914495 0.98407 0 
0.925951 1 0 
0.401496 0.0543057 0 
0.42883 0.0521883 0 
0.734589 0.960601 0 
0.749538 0.935874 0 
0.726038 0.932721 0 
0.294223 0.55365 0 
0.306282 0.534923 0 
0.316641 0.561858 0 
0.270525 0.875933 0 
0.240497 0.857107 0 
0.261493 0.836511 0 
0.0152726 0.0380004 0 
0.0121965 0.049392 0 
0 0.0393712 0 
0.525471 0.683708 0 
0.488983 0.672197 0 
0.516362 0.653008 0 
0.362434 0.169489 0 
0.356719 0.14838 0 
0.369906 0.156321 0 
0.862467 0.981828 0 
0.841474 0.973621 0 
0.847453 0.988296 0 
0.323749 0.422991 0 
0.288732 0.442035 0 
0.297034 0.403138 0 
0.591916 0.914731 0 
0.602035 0.913593 0 
0.59843 0.925061 0 
0.740655 0.288729 0 
0.694931 0.306083 0 
0.728517 0.334109 0 
0.470441 0.331866 0 
0.506824 0.3344 0 
0.491667 0.376185 0 
0.351954 0.520971 0 
0.36344 0.557884 0 
0.326339 0.5316 0 
0.172507 0.169906 0 
0.176982 0.146972 0 
0.161743 0.158444 0 
0.120011 0.160424 0 
0.120457 0.171943 0 
0.131065 0.165104 0 
0 0.0128134 0 
0.00769348 0.0192475 0 
0 0.0259347 0 
0.622358 0.239428 0 
0.649856 0.216364 0 
0.616074 0.20281 0 
0.315962 0.511248 0 
0.0953928 0.169633 0 
0.107959 0.172124 0 
0.102926 0.178678 0 
0.0835672 0.176149 0 
0.0862282 0.165288 0 
0.835321 0.742563 0 
0.847007 0.738175 0 
0.83879 0.729721 0 
0.861 0.450438 0 
0.877369 0.466281 0 
0.855201 0.475733 0 
0.714521 0.804845 0 
0.698925 0.803636 0 
0.711357 0.789863 0 
0.0668169 0.0871269 0 
0.0712979 0.0784458 0 
0.0593612 0.0807555 0 
0.379104 0.514678 0 
0.0755932 0.069048 0 
0.0853942 0.0763579 0 
0.462366 0.859799 0 
0.449513 0.832221 0 
0.485834 0.838744 0 
0.940194 0.800612 0 
0.936375 0.814544 0 
0.923946 0.806195 0 
0.570533 0.863556 0 
0.566461 0.845818 0 
0.55431 0.857999 0 
0.77873 0.555497 0 
0.769412 0.533615 0 
0.785987 0.535212 0 
0.236868 0.532738 0 
0.239262 0.504574 0 
0.199144 0.510946 0 
0.098151 0.687408 0 
0.111535 0.697736 0 
0.124635 0.681724 0 
0.467322 0.693108 0 
0.442036 0.678457 0 
0.440833 0.71941 0 
0.0641749 0.0702396 0 
0.97372 0.915236 0 
0.986813 0.921975 0 
0.976894 0.928154 0 
0.0696827 0.0190947 0 
0.0912456 0.0514209 0 
0.0828573 0.0334061 0 
0.0979175 0.0360138 0 
0.150774 0.212357 0 
0.159484 0.225372 0 
0.173722 0.211213 0 
0.590102 0.181388 0 
0.593367 0.203956 0 
0.58075 0.469973 0 
0.578049 0.422943 0 
0.528937 0.451753 0 
0.323793 0.138797 0 
0.309858 0.127512 0 
0.324612 0.123799 0 
0.302509 0.0625664 0 
0.276834 0.0617462 0 
0.287517 0.0804333 0 
0.470362 0.229228 0 
0.448945 0.214425 0 
0.443285 0.231109 0 
0.393128 0.104837 0 
0.373496 0.0937545 0 
0.391643 0.0773999 0 
0.600857 0.975052 0 
0.633208 0.971238 0 
0.614369 0.951415 0 
0.0640876 0.219846 0 
0.0801423 0.22451 0 
0.0745586 0.238874 0 
1 0.460045 0 
0.959382 0.436445 0 
0.974593 0.462204 0 
0.160322 0.181351 0 
0.109174 0.114506 0 
0.0989993 0.113518 0 
0.100734 0.123661 0 
0.0902094 0.1295 0 
0.0996227 0.1355 0 
0.163246 0.198168 0 
0.932819 0.920579 0 
0.946499 0.918461 0 
0.946138 0.931024 0 
0.630735 0.757262 0 
0.628381 0.775121 0 
0.61545 0.761631 0 
0.873078 0.619242 0 
0.885678 0.638735 0 
0.897132 0.615647 0 
0.0339832 0.0354575 0 
0.0338613 0.0243965 0 
0.0452443 0.0299875 0 
0.26882 0.629003 0 
0.293921 0.634438 0 
0.293945 0.609772 0 
0.177638 0.0753224 0 
0.184123 0.0682972 0 
0.17534 0.0639239 0 
0.27887 0.0934353 0 
0.295016 0.0995172 0 
0.146001 0.0790852 0 
0.134207 0.0719648 0 
0.143907 0.067428 0 
0.32626 0.595574 0 
0.188287 0.119148 0 
0.173974 0.128007 0 
0.174306 0.116571 0 
0.80619 0.922103 0 
0.800185 0.914937 0 
0.809296 0.914558 0 
0.89777 0.389255 0 
0.916907 0.376934 0 
0.900679 0.360511 0 
0.208903 0.309802 0 
0.224135 0.297255 0 
0.223552 0.317386 0 
0.152202 0.357516 0 
0.136636 0.370529 0 
0.162932 0.379579 0 
0.339983 0.133913 0 
0.490298 0.746142 0 
0.516643 0.731731 0 
0.516865 0.754503 0 
0.803852 0.909221 0 
0.281507 0.163366 0 
0.295729 0.15607 0 
0.282641 0.148696 0 
0.267042 0.170471 0 
0.281095 0.181503 0 
0.556899 0.926608 0 
0.5778 0.925898 0 
0.572096 0.916998 0 
0.280614 0.285453 0 
0.279848 0.262848 0 
0.307712 0.275062 0 
0.281256 0.200058 0 
0.265622 0.211041 0 
0.266426 0.189731 0 
0.91493 0.9515 0 
0.905525 0.941347 0 
0.917843 0.937954 0 
0.0892712 0.139184 0 
0.0788447 0.13629 0 
0.0830423 0.146028 0 
0.758892 0.687182 0 
0.76909 0.697174 0 
0.76071 0.710015 0 
0.94686 0.300883 0 
0.927742 0.299461 0 
0.938577 0.285721 0 
0.72405 0.813635 0 
0.727393 0.797564 0 
0.919239 0.917167 0 
0.92219 0.92725 0 
0.693451 0.82273 0 
0.67719 0.802713 0 
0.767689 0.83924 0 
0.783903 0.851222 0 
0.767433 0.857333 0 
0.161964 0.414086 0 
0.143151 0.393309 0 
0.143329 0.0466907 0 
0.679118 0.475854 0 
0.650281 0.497381 0 
0.687357 0.50119 0 
0.0917399 0.760196 0 
0.0511727 0.775477 0 
0.0781998 0.743914 0 
0.104172 0 0 
0.0861303 0.0145516 0 
0.09855 0.0206557 0 
0.59998 0.897842 0 
0.188047 0.0522419 0 
0.422139 0.655671 0 
0.410625 0.698999 0 
0.393109 0.665618 0 
0.610127 0.824924 0 
0.606288 0.853574 0 
0.595632 0.837926 0 
0.207056 0.543307 0 
0.282314 0.224128 0 
0.895372 0.883397 0 
0.892333 0.895103 0 
0.890751 0.887521 0 
0.932736 0.933436 0 
0.944866 0.944904 0 
0.635331 0.735628 0 
0.643612 0.744919 0 
0.838378 0.808777 0 
0.836002 0.828411 0 
0.819547 0.813569 0 
0.372679 0.188794 0 
0.395587 0.187854 0 
0.383735 0.170188 0 
0.585733 0.225372 0 
0.357359 0.125322 0 
0.923354 0.973493 0 
0.939855 0.969048 0 
0.925794 0.960569 0 
0.332657 0.370318 0 
0.321019 0.354689 0 
0.335551 0.351443 0 
0.104302 0.0466787 0 
0.333331 0.259703 0 
0.338708 0.232978 0 
0.319967 0.240308 0 
0.773172 0.791311 0 
0.870907 0.745851 0 
0.885092 0.739329 0 
0.873834 0.729971 0 
0.973104 0.947252 0 
0.967006 0.935011 0 
0.858736 0.37365 0 
0.178158 0.18859 0 
0.133176 0.0571974 0 
0.117993 0.0516867 0 
0.124836 0.0638191 0 
0.615977 0.592067 0 
0.641523 0.599406 0 
0.614905 0.613369 0 
0.934813 0.985077 0 
0.323918 0.221464 0 
0.724252 0.915111 0 
0.0679391 0.132944 0 
0.0746033 0.14487 0 
0.844534 0.751499 0 
0.902452 0.786103 0 
0.886587 0.782339 0 
0.896425 0.773816 0 
0.644781 0.764166 0 
0.651366 0.793478 0 
0.161089 0.127661 0 
0.160222 0.140916 0 
0.884368 0.58789 0 
0.107643 0.141031 0 
0.0974467 0.148462 0 
0.0434585 0.153625 0 
0.038825 0.166268 0 
0.0292557 0.149701 0 
0.113548 0.0318926 0 
0.178499 0.782542 0 
0.199406 0.8553 0 
0.226659 0.805114 0 
0.0168472 0.114693 0 
0 0.112409 0 
0.00802602 0.122764 0 
0.0113817 0.0274794 0 
0.11452 0.285243 0 
0.104415 0.276906 0 
0.107406 0.28856 0 
0.892052 0.795331 0 
0.938097 0.331062 0 
0.941454 0.321425 0 
0.949099 0.328738 0 
0.130119 0.0396059 0 
0.665564 0.823887 0 
0.345134 0.185405 0 
0.978848 0.865959 0 
0.966023 0.866745 0 
0.969152 0.855706 0 
0.706684 0.248273 0 
0.74251 0.247184 0 
0.686755 0.886307 0 
0.661928 0.889434 0 
0.667217 0.868227 0 
0.152289 0.713414 0 
0.146709 0.695066 0 
0.188647 0.694445 0 
0.89905 0.458041 0 
0.90024 0.483496 0 
0.445711 0.64215 0 
0.802355 0.703781 0 
0.807138 0.691826 0 
0.793472 0.693745 0 
0.0838174 0.2553 0 
0.063809 0.25742 0 
0.0572978 0.673146 0 
0.0613058 0.642792 0 
0.0865265 0.657335 0 
0.0420698 0.451753 0 
0.0756855 0.459212 0 
0.0696984 0.431788 0 
0.731536 0.835407 0 
0.72224 0.845017 0 
0.732033 0.851069 0 
0.928439 0.945985 0 
0.919569 0.884998 0 
0.90729 0.883643 0 
0.915073 0.873244 0 
0.183072 0.732929 0 
0.231446 0.717547 0 
0.828292 0.477605 0 
0.831617 0.448828 0 
0.608656 0.919258 0 
0.611649 0.906491 0 
0.556755 0.874468 0 
0.657271 0.330992 0 
0.656746 0.295612 0 
0.505196 0.13017 0 
0.483874 0.107807 0 
0.473114 0.129747 0 
0.0464419 0.171673 0 
0.0399972 0.182536 0 
0.136688 0.138255 0 
0.126968 0.150466 0 
0.119223 0.139257 0 
0.0940286 0.909318 0 
0.0683122 0.839119 0 
0 0.886883 0 
0.406805 0.206213 0 
0.411183 0.186463 0 
0.648495 0.70483 0 
0.653995 0.718559 0 
0.636846 0.713168 0 
0.0925682 0.788173 0 
0.819569 0.832509 0 
0.627622 0.310601 0 
0.899721 0.893218 0 
0.7055 0.70258 0 
0.708563 0.735501 0 
0.683692 0.728617 0 
0.188744 0.16723 0 
0.040879 0.25161 0 
0.0559379 0.237838 0 
0.163337 0.0965752 0 
0.164166 0.088486 0 
0.172848 0.0906696 0 
0.334263 0.0912684 0 
0.315983 0.107252 0 
0.31011 0.0846162 0 
0.652573 0.45465 0 
0.894116 0.845129 0 
0.881268 0.841024 0 
0.887752 0.85561 0 
0.11501 0.106094 0 
0.122375 0.115156 0 
0.206679 0.293485 0 
0.588975 0.706864 0 
0.591258 0.721542 0 
0.566841 0.722871 0 
0.921197 0.353317 0 
0.814625 0.702107 0 
0.174073 0.0389618 0 
0.882353 0.749886 0 
0.888455 0.760377 0 
0.892896 0.747811 0 
0.914693 0.851871 0 
0.905949 0.841568 0 
0.90257 0.853802 0 
0.046416 0.018137 0 
0.053194 0.0711587 0 
0.740317 0.908647 0 
0.770855 0.98263 0 
0.768915 0.964424 0 
0.787393 0.97623 0 
0.798838 0.864388 0 
0.817837 0.860985 0 
0.803657 0.846821 0 
0.425462 0.192523 0 
0.919202 0.83917 0 
0.651801 0.954783 0 
0.779252 0.952145 0 
0.788013 0.960614 0 
0.789061 0.945143 0 
0.429773 0.858674 0 
0.411849 0.894732 0 
0.451225 0.892251 0 
0.825379 0.847273 0 
0.729222 0.867167 0 
0.744195 0.857079 0 
0.112712 0.127906 0 
0.189709 0.0897105 0 
0.187036 0.078011 0 
0.182244 0.0856949 0 
0.905069 0.76448 0 
0.530572 0.932576 0 
0.559108 0.948916 0 
0.886996 0.727819 0 
0.229933 0.104337 0 
0.251537 0.111264 0 
0.236293 0.12287 0 
0.0951085 0.181981 0 
0.779266 0.888995 0 
0.792676 0.896277 0 
0.796552 0.880923 0 
[...]
POINT_DATA 2034
SCALARS Pressure float 1
LOOKUP_TABLE default
-21.7765
-0.819527
-20.4662
3.6767
3.37372
3.89054
9.81014
9.98812
8.91919
31.1864
28.226
27.2454
6.65146
7.18845
6.8979
7.15439
6.78103
6.76815
6.42954
8.20607
7.66386
81.5221
101.603
79.8927
5.55195
6.43248
6.57902
8.01406
6.6888
7.20855
2.52302
-1.92754
-0.497812
9.7073
8.50621
7.67176
6.73296
7.23409
11.4076
12.7186
11.7626
2.33894
2.25673
2.87439
102.73
60.4194
31.8883
10.441
10.7062
11.2073
17.2532
16.2698
15.8788
4.07554
4.93579
5.3662
20.1149
17.7373
20.9465
6.66683
6.8487
6.51645
6.12048
7.50178
7.23002
17.0716
15.0964
16.7223
14.7945
13.2349
13.5341
45.5477
45.4693
48.0411
48.2232
44.5659
47.9225
148.237
175.865
86.2695
7.95476
6.64922
7.19819
14.3009
40.1705
42.1849
39.1355
35.6113
39.2709
4.62494
5.02016
5.26542
6.19552
6.05854
6.63394
5.69169
6.27341
5.75247
75.9474
83.3512
79.1224
15.6679
86.3029
79.4201
6.10797
6.45157
6.88316
4.65968
3.78507
3.70749
7.38687
7.64701
7.31961
8.59834
8.73704
8.45513
10.2603
11.698
9.71075
2.64241
2.72619
3.23863
9.98576
10.1016
8.93489
89.8793
-4.35701
-3.11283
-7.17715
60.6581
66.2003
60.6856
49.3437
37.9287
36.0453
39.6214
7.36245
7.88414
13.4572
13.3614
15.364
18.1272
18.396
16.8397
13.9637
15.0116
15.938
13.5331
14.0672
15.114
12.2162
12.6469
11.2121
4.67936
5.85969
6.04748
24.3078
25.8451
22.4089
8.16994
6.23965
5.91736
44.8745
63.0962
64.1178
59.8709
55.0817
54.4062
41.738
-10.4199
-9.59171
-12.4594
8.17112
8.10865
8.41332
7.34144
7.17993
7.09018
141.25
149.418
120.798
7.79509
8.30564
9.13223
31.4291
28.6102
29.4089
17.906
17.0918
43.3475
46.2788
39.7656
10.6054
38.7256
44.6921
42.685
4.04611
4.06337
3.40734
5.21606
4.69538
4.58497
26.4643
28.8349
26.385
16.673
14.3952
15.5891
16.4663
8.89804
9.40008
8.93211
3.51502
25.6239
22.8689
23.8326
28.6504
27.5204
6.25912
6.21527
6.36988
29.7203
30.6599
28.2843
29.0323
31.9088
30.5188
-7.89863
-6.9151
-9.72517
50.2073
48.2629
45.3133
6.56169
6.18325
5.80817
2.67678
2.79051
2.58529
5.3675
5.12754
-9.30991
-10.3476
6.59162
6.96195
3.52783
2.76008
3.91609
12.9862
13.1818
31.8843
10.4957
11.3064
10.3689
1.67548
1.07772
1.69712
20.4638
42.5696
37.0474
7.12164
25.1312
10.5186
8.99523
9.67774
8.017
7.75635
7.90785
8.74162
30.1877
-5.10824
-5.77834
-5.22287
-12.0749
-14.8017
8.2318
7.96428
0.95189
0.0180083
1.09075
17.7297
15.9968
15.782
8.70755
14.8416
-6.17
-12.5182
-9.48055
23.6106
24.6653
24.5538
51.8649
25.6789
23.9033
26.354
3.26164
5.15171
5.7509
5.87331
-15.1931
-11.8174
5.42476
43.0405
40.2043
45.5472
47.788
11.0582
10.3852
10.6656
-6.49294
24.8818
6.95034
45.7648
43.0358
4.32939
4.02112
3.67959
4.48511
7.8276
7.59777
48.6058
49.3084
7.22235
53.4783
48.3621
31.3359
29.4992
28.9407
36.3633
2.51745
1.81006
2.87941
31.9125
24.1603
24.4681
140.345
20.8396
20.7305
19.5859
3.04768
2.78809
2.67158
2.54862
33.4264
7.32682
19.9324
2.9253
1.93274
2.93877
6.04335
5.29696
7.2699
7.47617
7.43724
3.1973
3.42395
4.27541
5.54716
5.79821
11.2775
5.95787
6.40145
6.2846
21.0658
17.7633
2.16084
2.60965
2.90158
5.89908
6.72243
7.2132
5.30487
5.84603
5.55053
-11.6826
-5.03754
-5.22442
-3.57158
3.41052
4.66681
7.19457
6.75724
6.83747
7.11978
7.04177
9.04408
8.29864
8.5275
8.52144
9.71732
29.7683
28.3087
54.1403
51.8544
55.1088
0.294038
0.656722
-0.125824
16.2395
14.9371
8.26003
7.9428
8.42972
1.38625
0.584184
9.51492
-6.10553
6.92579
6.22668
7.02017
43.2347
14.8734
19.4651
41.7609
39.085
36.7511
14.179
16.1872
14.9358
11.1012
-1.15673
-1.14814
-2.42418
63.485
60.2763
28.4409
9.44212
9.20567
9.45799
3.87756
6.09292
25.7101
5.24323
4.91821
5.59443
-0.826869
-0.213635
-1.74776
94.8957
86.8663
6.41496
7.35377
6.77717
6.30016
2.04643
0.63287
1.42901
14.3969
0.857672
6.99913
6.14997
6.04184
5.75878
5.5406
4.41838
5.23735
0.0664205
5.96945
5.13246
58.7859
31.8283
29.9436
32.7537
5.19475
6.10745
6.4079
6.21275
26.2237
23.6493
27.9582
36.6019
4.21276
3.66245
2.73042
1.5372
13.7797
15.1679
13.9213
92.0985
7.13873
7.23082
7.23348
10.3445
10.5538
11.2783
51.5118
8.95229
9.07473
7.02741
6.91281
4.97194
5.39859
5.08178
5.39329
5.18847
11.9721
14.7611
26.8929
6.2703
6.76814
6.8782
9.18047
19.651
21.6082
21.0659
21.8872
24.9623
22.5826
19.995
22.1865
6.03325
5.53668
6.17894
-0.158943
4.22893
3.11565
77.5409
7.91785
12.0413
5.00027
11.4456
10.3845
10.0986
5.80187
7.83001
7.63267
8.15566
9.65509
9.16602
9.72715
5.65295
1.04733
2.57585
2.64626
7.57931
7.48577
-8.29516
6.79358
5.64457
5.82098
2.98223
2.97664
33.0809
34.1512
34.0456
51.2791
15.3276
15.2129
13.3784
3.58529
4.11565
3.53047
9.08111
9.27566
31.5131
28.9662
10.6938
40.3166
0.0297263
14.9001
8.68605
10.2265
16.289
5.27907
5.7315
5.55946
4.7178
5.29936
26.3328
24.6903
61.1883
59.1191
54.2171
6.22325
6.96326
6.39451
2.37264
2.13315
3.3728
0.265535
6.31971
5.59072
3.25759
4.06531
7.09499
6.49249
5.71972
7.74287
7.22607
8.112
7.71222
3.00645
9.13417
25.7421
20.5264
30.524
32.4432
-17.5832
-7.66069
-9.35677
2.35385
1.08928
0.535618
18.4528
17.6277
7.35272
112.665
91.6415
112.276
1.82077
0.792704
8.15186
10.0211
0.256245
4.13936
3.77
3.69572
8.73736
8.64278
11.272
3.58125
2.99438
26.7814
29.23
25.6343
69.0602
71.7686
64.5945
11.1338
6.90369
12.6251
10.9248
4.88223
3.71501
15.5269
13.8997
57.4636
1.43876
2.48569
1.62123
-4.14725
-4.59021
-3.98831
7.88891
8.11688
8.11905
59.4553
9.50077
9.77693
2.43542
1.13196
-2.69105
29.3038
-6.58398
-7.97938
-2.04001
-2.83846
4.58833
4.31295
57.6113
3.63725
3.47047
39.7702
8.09456
3.12609
9.23418
9.22415
6.13854
-2.70176
-3.35914
3.80469
30.8577
-0.731071
0.0280505
-1.18991
31.8042
7.79141
27.7883
1.73432
-7.85678
10.5212
6.92425
2.23011
1.09827
1.90538
9.66048
19.9877
9.24305
39.3543
43.0972
6.90904
7.87785
7.01562
7.39686
7.90731
3.57475
3.75443
4.62914
27.4333
29.556
4.14465
18.8838
19.9103
18.6169
8.13126
7.10587
6.09688
8.2072
7.58945
7.77237
75.4992
71.5221
1.8831
0.763153
1.21761
26.7122
26.2371
17.7752
11.4639
44.7132
49.0818
39.6647
37.8858
9.24529
8.97286
35.5109
6.74183
6.75406
7.68517
34.48
35.0746
57.6463
38.1362
34.5008
1.37983
5.78105
2.97061
3.31747
2.49965
-2.90764
-5.23184
-3.74138
5.56162
-4.51106
6.05649
6.72653
16.236
13.4117
8.19599
20.3499
2.17984
2.6898
2.09805
39.0053
34.6143
1.82457
18.5278
5.74775
9.27083
4.68979
4.58588
14.4863
13.4693
71.6762
2.43265
3.27748
8.5266
7.77954
10.112
10.2992
11.4883
29.9956
32.7432
29.3138
7.92713
6.18889
5.61497
28.4242
27.915
7.78404
11.1252
6.00013
6.07608
11.6169
15.421
7.16576
8.00978
3.88524
30.1158
27.435
-2.4956
-3.13393
-0.0101922
2.74709
2.24975
2.47943
1.73691
-6.50664
6.07514
-1.13109
21.8817
5.36905
18.8671
15.3355
50.4809
13.7957
18.8537
7.50618
6.24372
7.55161
19.4139
-8.49272
21.0336
11.8407
12.7543
11.7398
6.15529
37.9644
40.6791
9.09947
6.43643
5.31482
5.83965
2.92695
0.980058
15.2755
14.3053
14.0961
7.83226
8.16891
9.84078
7.34528
7.44273
11.5857
7.63962
6.82087
7.69169
6.52149
65.6596
1.94444
1.68394
1.51262
4.8193
5.70745
5.40715
1.03713
-22.2904
5.98382
32.539
-1.56265
6.54473
7.51947
11.718
6.5288
7.23539
-4.0563
-4.17322
4.46008
4.90487
-1.11124
-1.9295
1.44653
2.40153
-3.46852
-4.38731
-4.75963
6.67147
31.4687
1.67241
65.9037
2.52926
2.93677
3.09672
3.65258
3.06284
2.94754
10.1205
2.65312
13.0496
14.1062
15.1159
70.9067
81.3243
100.082
7.38098
8.49699
8.64415
-0.816736
12.0221
7.4739
26.3336
29.9523
34.5264
38.5229
4.97811
5.51242
-13.5253
41.9545
39.1879
34.5681
9.12024
8.25739
7.86723
11.1983
10.482
10.7646
-0.565661
7.29341
7.10637
8.47766
8.27637
32.0045
33
30.5956
-1.71952
2.22347
2.38971
2.18389
22.345
13.5783
8.77218
38.2671
38.5082
40.8479
-7.05588
-7.61461
-6.71559
6.95295
7.0784
5.47229
28.0407
25.4565
-7.28832
-8.45309
9.87292
11.0277
10.5445
14.1312
14.3808
16.1082
4.181
4.35245
3.75933
34.7197
30.1359
12.9358
15.6278
12.5746
48.1058
6.64465
29.307
5.74746
14.5571
22.2687
23.4041
23.6087
22.4218
18.8564
1.51499
1.34884
-6.2032
23.452
26.1652
13.7628
4.87622
5.83481
5.47177
2.64005
12.4286
12.4092
11.8641
43.2472
4.82655
46.8445
45.9764
42.0262
8.08791
44.5
-0.363135
6.77568
6.90862
4.66309
4.48322
5.18731
6.00685
5.77874
6.71007
5.55129
3.12543
6.57094
31.1286
10.6272
9.66038
5.26259
-2.09776
-2.4628
9.52282
10.1917
33.2244
32.578
6.36497
5.78959
2.7843
5.59186
5.5734
6.32238
4.66549
1.53575
1.94638
35.924
9.58781
7.60847
21.7518
23.4829
5.46887
13.5735
6.30095
7.28918
7.37943
7.23162
4.08982
2.95379
0.836989
48.115
26.0256
7.25504
26.2295
17.0173
12.8071
2.12984
4.99696
18.5056
19.2687
17.6431
3.67243
8.92582
9.14862
8.89699
7.39897
7.32533
-9.27077
11.9738
5.31359
3.36628
6.20719
5.21478
5.14189
-2.82156
56.5074
9.84303
10.0232
33.2935
32.7811
19.4789
21.4485
8.60991
6.64378
7.28526
2.60329
14.6901
19.9113
19.3792
21.0856
8.24204
17.3439
-3.16619
-3.74996
30.5325
35.7993
0.265869
4.78096
7.27436
9.74214
7.34406
3.26221
1.84126
0.551195
1.29563
1.39202
32.4961
18.3647
23.2287
23.872
4.15523
-0.211526
0.100282
2.60454
8.04656
5.55884
5.57156
9.81782
33.4855
8.09714
-0.200651
-1.40337
7.83967
9.39865
8.39762
19.0886
68.489
62.4828
17.934
7.08627
28.9162
25.7903
15.1519
38.1451
32.835
5.09858
5.18658
8.80425
9.35399
8.20686
6.39511
119.145
127.63
11.1857
285.779
207.765
21.3682
4.66305
7.1001
19.9614
21.1852
3.91761
2.21629
6.46279
11.8774
15.2733
11.3115
4.62229
4.76877
9.71499
10.3794
-3.32059
0.772155
17.6087
47.736
54.9745
4.70059
5.50158
11.6525
6.72925
42.9588
6.88264
6.68129
16.8833
10.1354
11.2821
18.4599
26.1428
1.94486
1.79413
12.34
8.80904
1.97707
2.10471
2.0592
31.428
2.32302
2.60224
2.44152
5.51171
5.95045
1.95008
17.1725
16.6502
19.0796
2.15242
-2.56426
12.6908
15.1921
13.7695
8.13432
18.5625
2.80862
5.01548
14.4333
-1.4985
55.1509
21.1857
22.2813
7.66514
20.2154
22.0469
21.5722
22.2714
22.4147
45.7168
3.76838
4.60198
5.95178
4.32111
10.9846
10.3649
10.2656
2.06801
1.85664
41.5646
13.5956
9.62552
18.6842
7.31409
3.29553
3.92254
3.13618
27.7814
3.58826
52.6689
32.9246
34.5829
3.18469
183.445
270.099
156.808
170.636
8.64561
12.4378
11.1694
5.3321
217.216
10.5727
11.2566
2.51824
6.66093
7.03744
6.83942
9.72022
8.86596
74.2037
55.1792
26.4425
25.451
26.7695
6.38162
5.96472
11.0683
12.4866
66.3063
6.82835
16.6067
3.3616
-1.27749
-0.368262
49.0015
7.41577
7.17465
97.1634
6.74222
7.09134
16.7579
39.0368
7.66692
7.62073
3.05545
36.389
10.5895
-4.48066
-5.43304
6.45828
18.8278
18.5859
8.06565
4.61531
-17.6453
-19.9862
-6.32517
7.81645
-0.356211
-0.6063
0.578377
1.87538
8.31001
8.20783
-0.999002
-4.99757
6.07552
5.95104
2.66059
52.4911
45.1183
-0.303386
14.0376
12.5187
285.484
19.3988
70.3875
10.3024
3.77822
1.80996
1.647
7.81565
6.8601
43.3577
-2.03016
579.185
394.624
473.189
2.84052
2.72367
109.104
2.57168
0.980487
33.7219
6.52745
12.8404
30.9797
4.89757
4.21412
2.00688
2.68809
18.5248
8.68112
8.49459
37.4861
22.5265
-6.5591
12.7737
30.5745
4.50206
98.8093
8.26539
7.6484
0.876503
8.94275
3.85261
3.59265
4.01116
28.1225
3.32572
2.99669
4.76641
1.62184
7.3378
26.3806
22.2442
5.45749
5.54614
7.58659
4.26839
3.63133
129.978
-1.79137
-1.53391
3.23598
4.6841
8.66721
-0.569755
5.87562
9.03495
3.77284
9.56175
-4.53569
-5.002
9.41216
12.1487
11.0618
14.3353
28.268
17.9294
-1.03245
393.088
7.16485
9.7689
7.06143
-2.88022
2.94523
2.36606
2.03543
1.80874
36.4229
29.6388
24.2178
64.3419
40.3988
24.4758
6.3241
5.8458
6.10534
45.8259
4.22571
4.31636
10.6019
32.0024
6.76142
24.3969
35.3179
48.3546
4.34528
8.80812
54.4908
12.1871
81.7938
2.17561
4.78358
4.79206
4.44804
15.4855
36.4635
30.069
8.41543
168.534
6.13272
-0.866419
60.221
8.2712
36.3166
3.33723
8.26954
2.70883
31.3585
32.2429
390.106
389.687
11.5713
8.80306
22.9447
6.57704
79.6156
211.946
8.43504
-14.7841
93.0757
6.58969
6.50957
4.41478
5.08882
2.27167
188.923
7.42282
6.54058
4.77803
60.2823
56.3291
27.9065
33.6613
3.99777
8.48256
67.5196
23.7907
9.15531
25.0396
584.879
467.818
6.99425
0.343032
39.6379
7.65947
10.8947
1.31847
21.5912
4.9482
0.930988
-0.420172
0.527212
0.275413
-3.49283
57.8454
4.31651
7.55913
7.67828
1.89361
3.1926
-4.69864
-6.59115
5.48082
68.1978
3.12851
52.6906
23.6682
8.02549
30.0196
28.8841
32.9476
31.5572
8.6235
1.9895
6.31691
6.71172
51.9484
6.44215
5.49366
610.908
25.3765
19.773
3.08034
2.12444
1.51841
7.19673
7.50866
7.39737
7.16916
4.33667
2.94175
7.72771
6.65145
2.7502
20.2855
-23.4963
-18.2255
4.28765
-5.20594
52.6402
-2.01682
-0.51526
3.69015
11.7247
4.14282
2.22174
4.02495
43.1486
16.9652
17.3939
9.01832
10.01
4.82083
52.1021
47.5478
34.3206
33.9045
14.5897
17.3899
21.2094
10.4128
4.3179
8.8981
22.3896
45.3656
60.0184
7.41826
18.2843
38.8224
48.3629
22.807
3.01142
8.90039
5.78645
32.0793
4.6007
19.304
396.584
5.46346
926.529
8.00991
34.1335
7.12608
6.081
5.52223
4.96675
-1.07581
55.2477
3.24712
7.02519
50.9302
7.88378
-4.32464
7.17925
6.77036
9.87361
490.677
11.8005
12.3337
12.9419
30.173
3.33878
7.32291
17.707
12.5172
6.24181
6.95604
1.89167
20.522
5.94856
12.853
6.97171
5.73737
2.39258
26.6343
6.61276
7.87045
8.50679
7.07698
6.74255
28.4433
5.28299
8.65936
7.32867
-6.20778
25.6765
39.4353
58.9543
21.178
7.52169
7.83487
37.2978
7.15857
2.8526
29.4848
33.2402
27.9001
1.52008
26.6772
2.607
12.4526
33.3012
5.225
35.7839
6.50432
52.7113
16.7044
17.0226
43.8859
5.33461
4.04983
5.42867
26.701
28.1857
8.64409
17.4162
21.2318
0.101622
1.63708
15.479
39.2478
-0.893436
4.54571
3.90782
32.7538
1.08428
8.8884
8.82174
12.989
9.72394
7.92632
4.74286
8.24049
66.7607
21.9028
17.2709
12.3708
18.8377
3.24624
7.452
7.14972
8.73422
12.6533
20.5874
23.3683
5.29859
25.3711
27.9128
9.35144
2.61869
40.7066
2.78819
13.5883
13.5295
3.62597
3.97882
19.3996
22.0028
16.0238
18.3989
53.4674
29.0645
-2.14485
3.38814
15.1864
2.67149
2.99467
8.46852
17.1168
7.0044
2.5052
5.54926
6.69927
8.4365
30.4398
155.813
1.47173
8.59041
6.10371
24.6121
35.799
34.8208
31.8631
25.0737
21.1572
-2.41936
41.2254
10.3838
18.4696
6.69757
5.05085
1.37703
4.69944
7.48324
6.97682
6.86627
6.8353
5.36112
4.45491
105.282
5.11699
41.6099
8.08841
9.02763
8.29475
1.93059
7.03416
7.0125
5.52703
4.92904
-4.04966
19.9871
5.14909
11.2566
4.12755
4.17451
7.08043
6.44447
5.87053
7.53684
22.9363
-6.67527
36.927
1.17513
8.68128
6.68688
1.03665
5.97626
6.82062
16.1396
2.49031
34.1522
2.26481
12.9539
4.54971
7.94141
8.00314
1.03854
7.24009
18.6782
64.8691
4.70271
5.29382
5.46977
3.93868
23.0134
12.9526
25.4948
19.4762
8.67677
13.3543
13.0734
2.45547
67.7915
5.82558
7.34847
4.70048
4.12621
35.438
20.3461
33.3263
13.4507
7.96587
6.98338
11.1301
19.5679
27.2384
4.86813
-5.51271
9.40585
3.22131
6.09394
-5.90399
48.7998
4.63037
4.0204
3.95404
3.40481
32.6607
30.2273
60.6998
4.49045
-0.121893
6.77386
6.09716
27.0584
39.1228
23.5078
-2.44572
6.17339
13.4503
6.87253
18.9833
42.5075
6.28774
17.9999
23.8494
5.30582
4.01578
5.46812
5.51942
12.5054
14.7713
8.36976
10.5982
1.34273
5.05724
7.19725
2.54342
14.1728
13.4629
6.5108
4.82776
9.6357
35.1601
4.89477
8.14026
4.14841
18.0219
6.98087
20.7252
-0.16724
3.56543
29.4369
8.28034
15.0779
-1.59249
8.33876
4.44203
9.41455
13.2547
1.29811
7.09846
2.65879
30.4911
28.0624
28.0456
52.1719
7.55407
7.37448
6.55652
5.59054
7.03398
5.9185
1.71148
37.4591
7.4358
8.03482
3.17523
8.98116
5.29478
9.56615
6.89346
3.96457
1.28031
7.15651
2.67872
0.916522
8.47205
1.91428
23.6684
37.1019
24.7033
32.5179
5.63579
5.36612
24.0687
35.1074
1.87302
12.0355
18.8805
20.3407
14.0462
1.7192
2.58151
5.24502
4.62347
23.6565
0.981707
30.632
16.3569
1.89912
19.3444
7.42743
9.968
1.27208
7.8545
7.17313
28.8704
0.486493
4.73487
11.5522
11.5267
6.31053
-1.62065
5.20722
8.62248
13.483
23.801
2.31896
1.78624
1.30824
7.72386
23.1823
3.68161
5.27359
5.15294
4.51733
42.0231
2.05223
3.41735
5.09827
5.49666
6.0639
21.417
8.56135
11.9288
24.8149
-2.47859
10.2231
2.94626
30.0763
8.90662
4.42609
5.57379
35.1612
-6.0961
2.75353
38.7725
4.98667
10.9251
11.9157
8.58731
3.96377
24.2956
1.3194
6.78189
6.81547
6.64108
6.48173
32.8739
27.4925
1.73273
-3.48968
5.11852
37.3017
20.6722
7.73396
3.01425
2.18027
-4.0292
1.81624
-3.75656
0.422964
34.5419
2.48643
5.21772
3.71953
12.4651
6.78685
-31.2376
33.2065
5.11066
25.5867
23.4005
3.52571
3.86949
5.78652
0.919453
37.7879
20.2746
7.49234
8.39083
14.722
6.27482
4.07998
12.0815
12.4198
21.9618
0.982169
5.98026
5.47817
12.2674
34.8735
8.1887
5.27333
13.4845
6.81401
11.7326
3.24115
1.87149
16.2956
5.46938
5.9416
20.8527
22.9356
26.0777
29.4588
4.08883
3.29905
16.2234
4.6521
25.9147
9.63537
-60.3409
1.81493
7.85301
7.06761
22.7602
14.2805
2.91491
1.9594
7.62004
2.93475
1.98689
5.14545
6.20293
17.3103
4.58087
35.9567
0.915293
35.0924
5.15158
34.0068
7.70171
10.864
2.98818
5.8083
6.01055
36.3279
19.4416
SCALARS Saturation float 1
LOOKUP_TABLE default
0
0
0
0
0
0
0
0
0
0
0
0
0
0
0
0
0
0
0
0
0
0.420787
0.42971
0.310037
0
0
0
0
0
0
0
0
0
0
0
0
0
0
0
0
0
0
0
0
0.61981
0.505931
0.606288
0
0
0
0
0
0
0
0
0
0
0
0
0
0
0
0
0
0
0
0
0
0
0
0
0
0
0
0
0
0
0.871866
0.807431
0.740653
0
0
0
0
0
0
0
0
0
0
0
0
0
0
0
0
0
0
0.127916
0.214672
0.191721
0
0.243225
0.145126
0
0
0
0
0
0
0
0
0
0
0
0
0
0
0
0
0
0
0
0
0
0.296821
0
0
0
0.30294
0.0869164
0.171019
0.0203855
0
0
0
0
0
0
0
0
0
0
0
0
0
0
0
0
0
0
0
0
0
0
0
0
0
0
0
0
0
0
0
0
0
0
0
0
0
0
0
0
0
0
0
0
0
0.64501
0.661089
0.547191
0
0
0
0
0
0
0
0
0
0
0
0
0
0
0
0
0
0
0
0
0
0
0
0
0
0
0
0
0
0
0
0
0
0
0
0
0
0
0
0
0
0
0
0
0
0
0
0
0
0
0
0
0
0
0
0
0
0
0
0
0
0
0
0
0
0
0
0
0
0
0
0
0
0
0
0
0
0.138519
0.0142479
0
0
0
0
0
0
0
0
0
0
0
0
0
0
0
0
0
0
0
0
0
0
0
0
0
0
0
0
0
0
0
0
0
0
0
0
0
0
0
0
0
0
0
0
0
0
0
0
0
0
0
0
0
0
0
0
0
0
0
0
0
0
0
0
0
0
0
0
0
0
0
0
0
0
0
0.725067
0
0
0
0
0
0
0
0
0
0
0
0
0
0
0
0
0
0
0
0
0
0
0
0
0
0
0
0
0
0
0
0
0
0
0
0
0
0
0
0
0
0
0
0
0
0
0
0
0
0
0
0
0
0
0
0
0
0
0
0
0
0
0
0
0
0
0
0
0
0
0
0
0
0
0
0
0
0
0
0
0
0
0
0
0
0
0
0
0
0
0
0
0
0
0
0
0
0
0
0
0
0
0.535619
0.287764
0
0
0
0
0
0
0
0
0
0
0
0
0
0
0
0
0
0
0
0
0
0
0
0
0
0
0
0
0
0
0
0
0
0
0
0
0
0
0.305018
0
0
0
0
0
0
0
0
0
0
0
0
0
0
0
0
0
0
0
0
0
0
0
0
0
0
0
0
0
0
0
0
0
0
0
0
0
0.127917
0
0
0
0
0
0
0
0
0
0
0
0
0
0
0
0
0
0
0
0
0
0
0
0
0
0
0
0
0
0
0
0
0
0
0
0
0
0
0
0
0
0
0
0
0
0
0
0
0
0
0
0
0
0
0
0
0
0
0
0
0
0
0
0
0
0
0
0
0
0
0
0
0
0
0
0
0
0
0
0
0
0
0
0
0
0
0
0
0
0.526123
0.416051
0.489609
0
0
0
0
0
0
0
0
0
0
0
0
0
0
0
0
0.0307547
0.02709
0
0
0
0
0
0
0
0
0
0
0
0
0
0
0
0
0
0
0
0
0
0
0
0
0
0
0
0
0
0
0
0
0.428039
0
0
0
0
0
0
0
0
0
0
0
0
0
0
0
0
0
0
0
0
0
0
0
0
0
0
0
0
0
0
0
0
0
0
0
0
0
0
0
0
0
0
0
0
0
0
0
0
0
0
0.107936
0.0139093
0
0
0
0
0
0
0
0
0
0
0
0
0
0
0
0
0
0
0
0.37325
0.552909
0
0
0
0
0
0
0
0
0
0
0
0
0
0
0
0
0
0
0
0
0
0
0
0
0
0
0
0
0
0
0.0148737
0
0
0
0
0
0
0
0
0
0
0
0
0
0
0
0
0
0
0
0
0
0
0
0
0
0
0
0
0
0
0
0
0
0
0
0
0
0
0
0
0
0
0
0
0
0
0
0
0
0
0
0
0
0
0
0
0
0
0
0
0
0
0
0
0
0
0
0
0
0
0
0
0
0
0
0
0
0
0
0
0
0
0
0
0
0
0
0
0
0
0
0
0
0
0
0
0
0
0
0
0
0
0
0
0
0.0792768
0
0
0
0
0
0
0
0
0
0
0
0.01405
0.307514
0.404107
0
0
0
0
0
0
0
0
0
0
0
0
0
0
0
0
0
0
0
0
0
0
0
0
0
0
0
0
0
0
0
0
0
0
0
0
0
0
0
0
0
0
0
0
0
0
0
0
0
0
0
0
0
0
0
0
0
0
0
0
0
0
0
0
0
0
0
0
0
0
0
0
0
0
0
0
0
0
0
0
0
0
0
0
0
0
0
0
0
0
0
0
0
0
0
0
0
0
0
0
0
0
0
0
0
0
0
0
0
0
0
0
0
0
0
0
0
0
0
0
0
0
0
0
0
0
0
0
0
0
0
0
0
0
0
0
0
0
0
0.111335
0
0
0
0
0
0
0
0
0
0
0
0
0
0
0
0
0
0
0
0
0
0
0
0
0
0
0
0
0
0
0
0
0
0
0
0
0
0
0
0
0
0
0
0
0
0
0
0
0
0
0
0
0
0
0
0
0
0
0
0
0
0
0
0
0
0
0
0
0
0
0
0
0
0
0
0.314062
0.212544
0
0
0
0
0
0
0
0
0
0
0
0
0
0.527712
0.563888
0
0.882406
0.796418
0
0
0
0
0
0
0
0
0
0
0
0
0
0
0
0
0
0
0
0
0
0
0
0
0
0
0
0
0
0
0
0
0
0
0
0
0
0
0
0
0
0
0
0
0
0
0
0
0
0
0
0
0
0
0
0
0
0
0
0
0
0
0
0
0
0
0
0
0
0
0
0
0
0
0
0
0
0
0
0
0
0
0
0
0
0
0
0
0
0.196922
0
0
0
0.914157
0.889463
0.864876
0.783642
0
0
0
0
0.857381
0
0
0
0
0
0
0
0
0.42817
0.395279
0
0
0
0
0
0
0
0
0
0
0
0
0
0.0901403
0
0
0.3604
0
0
0
0
0
0
0
0
0
0
0
0
0
0
0
0
0
0
0
0
0
0
0
0
0
0
0
0
0
0
0
0.278708
0.327795
0
0
0
0.897395
0
0.0426937
0
0
0
0
0
0
0
0
0.979812
0.953199
0.963443
0
0
0.46438
0
0
0
0
0
0
0
0
0
0
0
0
0
0
0
0
0
0
0
0.39662
0
0
0
0
0
0
0
0
0
0
0
0
0
0
0
0
0
0
0
0
0.668864
0
0
0
0
0
0
0
0
0
0
0
0
0
0
0
0
0
0
0
0.932898
0
0
0
0
0
0
0
0
0
0.035759
0
0
0
0
0
0
0
0
0
0
0
0
0
0
0
0
0
0
0
0
0.240688
0
0
0
0
0
0
0
0
0.719206
0
0
0
0
0
0
0
0
0
0
0.951206
0.934887
0
0
0
0
0.16511
0.847233
0
0
0.716293
0
0
0
0
0
0.918116
0
0
0
0
0
0
0
0
0
0.169158
0
0
0
0.979059
0.962894
0
0
0
0
0
0
0
0
0
0
0
0
0
0
0
0
0
0
0
0
0
0
0
0
0.468694
0
0
0
0
0
0
0
0
0
0
0
0
0
0.981899
0
0
0
0
0
0
0
0
0
0
0
0
0
0
0
0
0
0
0
0