# vtk DataFile Version 2.0
Two phases flow simulation
ASCII
DATASET UNSTRUCTURED_GRID
POINTS 1932 float
0.183072 0.732929 0 
0.152289 0.713414 0 
0.188647 0.694445 0 
0.808334 0.937276 0 
0.79909 0.939701 0 
0.802283 0.93014 0 
0.805285 0.336802 0 
0.776738 0.294819 0 
0.763783 0.325741 0 
0.867978 0.924293 0 
0.867503 0.91734 0 
0.873829 0.914453 0 
0.734219 0.881746 0 
0.729222 0.867167 0 
0.749644 0.870108 0 
1 0.528845 0 
1 0.460045 0 
0.980084 0.495914 0 
0.206679 0.293485 0 
0.210873 0.275121 0 
0.198494 0.277411 0 
0.833447 0.916946 0 
0.840365 0.913726 0 
0.840514 0.919774 0 
0.753753 0.212313 0 
0.724586 0.214245 0 
0.74251 0.247184 0 
0.781937 0.485324 0 
0.802684 0.467556 0 
0.770309 0.460311 0 
0 0.26307 0 
0.0238706 0.274092 0 
0 0.309592 0 
0.449369 0.758306 0 
0.490298 0.746142 0 
0.47492 0.781257 0 
0.758892 0.687182 0 
0.773016 0.685547 0 
0.76909 0.697174 0 
0.0980243 0.303209 0 
0.108468 0.311561 0 
0.109926 0.29861 0 
0.740655 0.288729 0 
0.809296 0.914558 0 
0.817707 0.91237 0 
0.8115 0.906421 0 
0.197412 0.350655 0 
0.221136 0.344107 0 
0.199654 0.327256 0 
0.925794 0.960569 0 
0.923354 0.973493 0 
0.939855 0.969048 0 
0.90004 0.755155 0 
0.892896 0.747811 0 
0.904591 0.744756 0 
0.145558 0.438949 0 
0.133727 0.414139 0 
0.161964 0.414086 0 
0.231446 0.717547 0 
0.383735 0.170188 0 
0.369906 0.156321 0 
0.362434 0.169489 0 
0.736652 0.700441 0 
0.729381 0.676391 0 
0.0420262 0.705895 0 
0.0646676 0.715522 0 
0.0740508 0.697508 0 
0.725099 0.898615 0 
0.740317 0.908647 0 
0.724252 0.915111 0 
0.648495 0.70483 0 
0.660584 0.68674 0 
0.672761 0.705767 0 
0.977159 0.750767 0 
0.96198 0.770989 0 
0.954554 0.749755 0 
0.146587 0.531828 0 
0.138387 0.508165 0 
0.163685 0.50645 0 
0.904477 0.253911 0 
0.883228 0.255835 0 
0.894401 0.23445 0 
0.905069 0.76448 0 
0.910374 0.754351 0 
0.926758 0.330325 0 
0.931045 0.340676 0 
0.913269 0.336518 0 
0.793622 0.735707 0 
0.793299 0.727835 0 
0.800271 0.730822 0 
0.901092 0.702158 0 
0.916222 0.71881 0 
0.934051 0.701423 0 
0.711172 0.82323 0 
0.731536 0.835407 0 
0.711391 0.838333 0 
0.814872 0.921019 0 
0.823681 0.918691 0 
0.476816 0.279551 0 
0.516352 0.289715 0 
0.485199 0.306159 0 
0.882697 0.71552 0 
0.876122 0.701057 0 
0.7055 0.70258 0 
0.475291 0.180106 0 
0.457137 0.165916 0 
0.477265 0.152983 0 
0.158832 0.296811 0 
0.17404 0.303342 0 
0.159719 0.313668 0 
0.192359 0.308508 0 
0.208903 0.309802 0 
0.525471 0.683708 0 
0.500732 0.707352 0 
0.488983 0.672197 0 
0.124894 0.752325 0 
0.115787 0.739672 0 
0.128626 0.740138 0 
0.0532654 0.508999 0 
0.0420698 0.451753 0 
0.0756855 0.459212 0 
0.229751 0.0869634 0 
0.229933 0.104337 0 
0.247787 0.0941053 0 
0.898344 0.722745 0 
0.0973745 0.197883 0 
0.0845174 0.201492 0 
0.0920667 0.210123 0 
0.602843 0.783001 0 
0.58112 0.789098 0 
0.586761 0.804851 0 
0.310935 0.654906 0 
0.295414 0.688581 0 
0.277167 0.655519 0 
0.538609 0.7113 0 
0.962134 0.722826 0 
0.449493 0.278647 0 
0.456494 0.300279 0 
0.530572 0.932576 0 
0.559108 0.948916 0 
0.538361 0.963799 0 
0.177168 0.230421 0 
0.193456 0.222945 0 
0.187615 0.240881 0 
0.848982 0.948141 0 
0.838806 0.940053 0 
0.835868 0.948945 0 
0.0168472 0.114693 0 
0.0105689 0.102919 0 
0 0.112409 0 
0.0696984 0.431788 0 
0.0958666 0.439068 0 
0.785432 0.680846 0 
0.793472 0.693745 0 
0.780555 0.694622 0 
0.661928 0.889434 0 
0.649003 0.872534 0 
0.667217 0.868227 0 
0.921137 0.75694 0 
0.748279 0.485084 0 
0.775308 0.509293 0 
0.751649 0.519533 0 
0.136688 0.138255 0 
0.126968 0.150466 0 
0.119223 0.139257 0 
0.467322 0.693108 0 
0.128814 0.181041 0 
0.120457 0.171943 0 
0.131065 0.165104 0 
0.0537912 0.152426 0 
0.0652375 0.155866 0 
0.0527137 0.162828 0 
0.777544 0.707214 0 
0.76071 0.710015 0 
0.372679 0.188794 0 
0.703734 0.904949 0 
0.709241 0.923242 0 
0.843247 0.7834 0 
0.836853 0.794051 0 
0.855014 0.79614 0 
0.470441 0.331866 0 
0.172848 0.0906696 0 
0.164166 0.088486 0 
0.168211 0.0816427 0 
0.745129 0.892654 0 
0.338923 0.150538 0 
0.33356 0.165579 0 
0.348807 0.163474 0 
0.783994 0.83349 0 
0.802661 0.82592 0 
0.788086 0.816509 0 
0.985744 0.803607 0 
0.972848 0.817675 0 
0.970051 0.794022 0 
0.911498 0.776458 0 
0.870407 0.762536 0 
0.882353 0.749886 0 
0.870907 0.745851 0 
0.970635 0.877603 0 
0.966023 0.866745 0 
0.978848 0.865959 0 
0.937805 0.87787 0 
0.927579 0.874131 0 
0.936939 0.862592 0 
0.833366 0.933321 0 
0.840918 0.93195 0 
0.104172 0 0 
0.0861303 0.0145516 0 
0.09855 0.0206557 0 
0.0935992 0.483542 0 
0.263094 0.29711 0 
0.280614 0.285453 0 
0.254743 0.275609 0 
1 0.819469 0 
0.795523 0.748079 0 
0.801107 0.756058 0 
0.792192 0.75967 0 
0.195639 0.132847 0 
0.195718 0.151173 0 
0.183222 0.136261 0 
0.666533 0.574946 0 
0.655283 0.549649 0 
0.630734 0.566316 0 
0.921538 0.682533 0 
0.752306 0.845518 0 
0.767689 0.83924 0 
0.767433 0.857333 0 
0.206608 0.124117 0 
0.188287 0.119148 0 
0.0296396 0.0909498 0 
0.0400043 0.0961623 0 
0.0338109 0.107884 0 
0.610127 0.824924 0 
0.633963 0.828991 0 
0.606288 0.853574 0 
0.346943 0.472858 0 
0.357402 0.496625 0 
0.335737 0.501912 0 
0.243437 0.29804 0 
0.505196 0.13017 0 
0.509521 0.0876475 0 
0.528222 0.109421 0 
0.505104 0.506557 0 
0.543482 0.487152 0 
0.528937 0.451753 0 
0.755747 0.401852 0 
0.71641 0.377915 0 
0.711599 0.416223 0 
0.83747 0.925578 0 
0.826912 0.910227 0 
0.112756 0.506983 0 
0.12408 0.485978 0 
0.400246 0.157355 0 
0.411985 0.145239 0 
0.414137 0.159154 0 
0.884861 0.688483 0 
0.868512 0.684743 0 
0.230272 0.0254647 0 
0.252872 0.0222846 0 
0.242125 0.0426161 0 
0.919569 0.884998 0 
0.913261 0.894213 0 
0.924264 0.896242 0 
0.0824305 0 0 
0.341496 0.446738 0 
0.366417 0.452595 0 
0.0850702 0.708604 0 
0.0752894 0.708934 0 
0.376901 0.481716 0 
0.109174 0.114506 0 
0.11501 0.106094 0 
0.105951 0.104606 0 
0.126558 0.280241 0 
0.119848 0.270833 0 
0.11452 0.285243 0 
0.835321 0.742563 0 
0.844534 0.751499 0 
0.847007 0.738175 0 
0.925563 0.77735 0 
0.116551 0.0847578 0 
0.122911 0.0913307 0 
0.112515 0.0959381 0 
0.0931631 0.267398 0 
0.0989139 0.255199 0 
0.109663 0.263365 0 
0.271563 0.382016 0 
0.240238 0.391658 0 
0.262787 0.415485 0 
0.907433 0.90033 0 
0.906738 0.89213 0 
0.145116 0.14944 0 
0.0352553 0.389573 0 
0 0.36039 0 
0.0499164 0.358931 0 
0.32626 0.595574 0 
0.288338 0.579085 0 
0.316641 0.561858 0 
0.0228688 0.0439792 0 
0.0235579 0.0310005 0 
0.0339832 0.0354575 0 
0.0575663 0.132026 0 
0.0454723 0.129755 0 
0.0448535 0.140745 0 
1 0.333943 0 
1 0.387361 0 
0.976175 0.347689 0 
0.888455 0.760377 0 
0.981288 0.32188 0 
0.21717 0.115079 0 
0.201198 0.109817 0 
0.806404 0.946261 0 
0.938097 0.331062 0 
0.351954 0.520971 0 
0.846439 0.213842 0 
0.80282 0.215662 0 
0.838463 0.248173 0 
0.124928 0.726259 0 
0.869099 0.240131 0 
0.884142 0.20384 0 
0.848891 0.933123 0 
0.859289 0.940132 0 
0.0768201 0.717066 0 
0.823477 0.562209 0 
0.823246 0.534791 0 
0.801324 0.548271 0 
0.586441 0.890789 0 
0.585722 0.907752 0 
0.59998 0.897842 0 
0.333954 0.292847 0 
0.307712 0.275062 0 
0.304166 0.303476 0 
0.761083 0.888291 0 
0.756445 0.902776 0 
0.769061 0.899161 0 
0.302332 0.370253 0 
0.297034 0.403138 0 
0.207056 0.543307 0 
0.236868 0.532738 0 
0.224929 0.555857 0 
0.100748 0.740699 0 
0.0781998 0.743914 0 
0.0928913 0.728226 0 
0.416628 0.0980602 0 
0.434269 0.118732 0 
0.441553 0.0935687 0 
0.902452 0.786103 0 
0.896425 0.773816 0 
0.606193 0.10228 0 
0.611738 0.132098 0 
0.634263 0.108215 0 
0.0753094 0.72718 0 
0.0861611 0.719664 0 
0.104415 0.276906 0 
0.885092 0.739329 0 
1 0.114475 0 
1 0.196102 0 
0.939637 0.157555 0 
0.738613 0.0427694 0 
0.762532 0 0 
0.689384 0 0 
0.798727 0.580823 0 
0.899591 0.435823 0 
0.924119 0.439339 0 
0.89905 0.458041 0 
0.637365 0.686134 0 
0.114907 0.771855 0 
0.109423 0.751451 0 
0.302669 0.336771 0 
0.278081 0.314448 0 
0.90986 0.863012 0 
0.90257 0.853802 0 
0.914693 0.851871 0 
0.32401 0.320536 0 
0.945898 0.871377 0 
0.59751 0.760851 0 
0.61545 0.761631 0 
0.859714 0.749781 0 
0.0726744 0.17609 0 
0.075743 0.185696 0 
0.0835672 0.176149 0 
0.671296 0.784395 0 
0.680866 0.769396 0 
0.663857 0.766982 0 
0.280579 0.10754 0 
0.27887 0.0934353 0 
0.266025 0.100935 0 
0.710298 0.872315 0 
0.740805 0.440595 0 
0.0434585 0.153625 0 
0.038825 0.166268 0 
0.191321 0.201754 0 
0.173722 0.211213 0 
0.686256 0.403961 0 
0.906451 0.309741 0 
0.883997 0.335112 0 
0.677213 0.380362 0 
0.0459231 0.113139 0 
0.0402354 0.121306 0 
0.779478 0.935248 0 
0.766446 0.943756 0 
0.779252 0.952145 0 
0.224135 0.297255 0 
0.236454 0.281525 0 
0.773599 0.670638 0 
0.936698 0.726438 0 
0.954287 0.857721 0 
0.957067 0.876316 0 
0.971852 0.967063 0 
0.981972 0.981416 0 
0.985651 0.960345 0 
0.693614 0.132487 0 
0.669267 0.158454 0 
0.661168 0.122955 0 
0.187523 0.291108 0 
0.169524 0.284885 0 
0.112712 0.127906 0 
0.0996227 0.1355 0 
0.107643 0.141031 0 
0.91493 0.9515 0 
0.912091 0.966201 0 
0.64195 0.89144 0 
0.271988 0.348105 0 
0.852795 0.867775 0 
0.869162 0.869041 0 
0.860631 0.874573 0 
0.740456 0.788832 0 
0.738883 0.76801 0 
0.751496 0.784171 0 
0.916828 0.404807 0 
0.888081 0.413879 0 
0.89777 0.389255 0 
0.516643 0.731731 0 
0.537777 0.745484 0 
0.345134 0.185405 0 
0.421675 0.0734316 0 
0.391643 0.0773999 0 
0.611976 0.166973 0 
0.580557 0.154009 0 
0.395806 0.638908 0 
0.41934 0.622549 0 
0.422139 0.655671 0 
0.069425 0.0599655 0 
0.0834126 0.0625793 0 
0.0758702 0.0500209 0 
0.623829 0.800702 0 
0 0.616632 0 
0.0310838 0.647361 0 
0 0.668453 0 
0.769469 0.82207 0 
0.267042 0.170471 0 
0.266426 0.189731 0 
0.281095 0.181503 0 
0.61913 0 0 
0.650978 0.0461507 0 
0.0371891 0.568571 0 
0.0682517 0.55281 0 
0.615977 0.592067 0 
0.594999 0.576809 0 
0.811263 0.288446 0 
0.836625 0.163364 0 
0.728352 1 0 
0.702435 0.970754 0 
0.681467 1 0 
0.449878 0.141992 0 
0.441495 0.161764 0 
0.220123 0.260485 0 
0.206077 0.263168 0 
0 0 0 
0 0.0128134 0 
0.010877 0.0106209 0 
0.0912456 0.0514209 0 
0.0828573 0.0334061 0 
0.87723 0.79877 0 
0.870631 0.782136 0 
0.886587 0.782339 0 
0.693451 0.82273 0 
0.83879 0.729721 0 
0.815824 0.73453 0 
0.812096 0.726766 0 
[...]
POINT_DATA 1932
SCALARS Pressure float 1
LOOKUP_TABLE default
-2.63153
0.000434832
-3.24515
-12.6498
-11.3511
-12.5979
-0.061033
0.00778915
-0.0440711
-24.5896
-25.3505
-27.1631
-9.38492
-9.81438
-11.5311
-0.183892
-0.051754
-0.11464
11.3372
13.0466
12.5
-18.4078
-20.0499
-19.3292
0.0629328
0.0914086
0.068621
-1.25378
-0.851967
-0.955847
3.07987
3.27344
0.996849
-1.08431
-1.85872
-1.315
-10.0771
-9.73684
-10.6245
5.14996
5.21242
6.05716
0.0366053
-14.9693
-16.3878
-16.0841
6.73791
7.94382
8.40366
-36.9376
-31.8561
-41.7721
-9.27432
-9.154
-8.10089
1.77883
2.13572
2.7625
-0.0248766
4.04277
4.19126
4.92327
-10.8639
-9.52779
-0.0129825
-0.0123236
-0.0110531
-7.6989
-8.20356
-6.73153
-8.12459
-8.37056
-9.19651
-5.0841
-6.34148
-5.78369
0.508112
0.659367
0.878285
0.0265603
0.027029
0.0257283
-9.74937
-8.4401
0.0149147
0.0108291
0.0049034
-13.2079
-12.5636
-12.6683
-5.58363
-5.81132
-4.06026
-10.4355
-11.6887
-9.8055
-15.0753
-16.6057
2.78579
1.85167
2.71907
-7.30173
-6.69277
-10.3068
1.75033
1.92611
1.43489
8.91442
9.15246
7.65234
9.55329
10.0689
-3.13373
-2.33758
-2.10834
-0.0111208
-0.01058
-0.00950145
0.228469
0.416161
0.597604
9.34222
10.9246
8.26293
-6.94445
14.9715
13.1125
12.8184
-4.98255
-3.96077
-3.85246
0.0197223
-0.0580606
0.0705673
-3.44756
-3.86078
3.67026
3.61552
-0.705089
-0.802994
-0.558347
16.6647
17.6393
15.8081
-16.8886
-16.3654
-14.8309
14.8289
15.7736
10.4754
0.786087
1.02104
-9.09088
-9.80917
-10.2277
-4.53502
-4.54994
-5.5962
-7.87313
-1.51149
-1.76652
-2.25964
28.4428
26.9582
29.0604
-1.60912
21.2889
22.2943
24.4062
15.8676
17.298
14.1783
-11.2241
-11.5581
5.06035
-6.02167
-5.47929
-16.7066
-18.1394
-17.8167
3.27087
17.7779
19.2951
17.168
-9.64179
5.38416
6.30707
5.37847
-17.0487
-18.8648
-17.5124
-5.0356
-8.25906
-6.37453
-10.3902
-12.423
-10.1304
-10.5723
-18.9059
-16.9147
-13.2787
-26.4787
-26.9177
-22.2573
-16.3755
-17.7931
8.91145
21.9367
18.9487
0.549822
11.6529
11.7873
12.9855
-5.2769
-14.2068
-14.8368
-15.1028
18.8546
20.1239
21.3437
-4.6867
-3.73158
-4.10949
-3.71324
-13.2182
-15.1209
-14.205
16.1217
18.7887
25.9492
28.2398
21.2759
-4.3086
-5.25979
-3.41923
3.19872
2.42289
2.29893
11.6604
0.895675
0.584884
0.577808
-0.133931
-0.526872
0.527234
-0.400077
-0.260526
-0.603362
-18.0334
-18.0704
0.504007
0.764876
3.17303
2.61286
2.81269
-5.55212
-6.05378
4.26875
3.37606
4.80119
-30.4517
-32.5874
-32.979
13.9468
4.13431
3.79902
-0.0106314
-0.0117061
2.76704
34.2847
34.5635
36.3551
8.4109
8.77536
7.25881
-12.4655
-12.9139
-11.3654
-9.17741
33.2761
31.9209
35.5014
7.22653
8.68354
8.7323
6.70938
5.63153
4.90563
-33.2883
-31.9929
26.5586
0.787332
0.526777
1.51802
0.454167
0.65469
0.93897
62.6707
89.668
81.4879
21.0938
18.6582
16.2276
0.0515468
0.0334176
0.0250378
-10.7192
0.0418438
13.5732
15.353
-11.5958
0.0190781
1.77151
0.0295445
0.0388036
0.0289489
-0.00740986
0.0279554
0.0231556
-19.0853
-20.0959
-0.011862
-2.36304
-1.72741
-2.36276
-2.00458
-1.66353
-2.18394
9.29249
10.8378
10.3689
-11.4659
-9.96587
-11.4908
7.50206
5.88206
0.757159
1.09401
0.712379
-0.0113439
-0.0109844
-0.0113832
1.76544
1.73837
1.31181
-12.4506
-11.514
0.199426
0.249554
0.144501
-0.0117692
-0.0113998
7.24964
-8.96712
0.000760523
0.0098858
0.0106238
0.0151697
0.0163291
0.0120042
-3.4191
-0.188632
-0.135626
-0.27711
-7.4554
-0.011206
-0.0113495
9.10979
10.5222
-26.0072
-24.5888
-22.9368
9.19335
-23.0302
-5.16719
-6.00263
-11.766
15.0932
14.1447
16.601
-8.73134
-9.68739
-8.62855
6.67407
5.93566
7.28424
-8.06424
-0.829343
13.9984
12.3301
19.4683
18.8062
-0.462961
0.0181776
-0.010179
-0.224748
23.6129
19.3926
-9.60429
-7.72576
-8.07551
11.4761
12.8059
-8.69357
-5.28941
-17.3487
-22.0628
-59.0813
-70.6551
-49.9863
0.0825945
0.143958
0.116763
10.8197
10.5176
31.4207
28.7778
28.1122
-34.4567
-29.8512
-3.64384
8.63026
-24.7954
-26.612
-25.9582
-13.6825
-13.46
-14.4642
-0.0765372
-0.147737
-0.0739549
-2.61395
-3.11185
6.42021
1.34775
1.9095
0.329218
0.446347
-0.367538
-0.517853
-0.782167
52.764
45.042
46.623
-5.55655
-0.0235014
-0.0131317
-0.0169946
-15.8092
11.9651
12.9902
11.1605
0.0156798
0.0445314
0.0412682
0.134861
-4.70128
-3.84526
0.0110758
0.0246297
-2.45219
-2.93318
-1.80945
1.76169
2.19215
14.378
14.0209
222.093
117.679
137.17
36.7085
33.3321
-16.7462
-14.8913
-13.5356
-9.06947
-11.0015
-12.5285
-11.9427
-12.6777
15.5083
14.1879
14.2581
7.17428
0.208425
0.238037
0.148098
-10.6188
-10.1578
-9.4258
43.5406
38.3038
39.8626
8.15062
-0.270756
-0.414731
-7.09659
-7.39064
-4.3303
-4.57068
-2.15332
-2.37997
-1.88311
0.871985
7.38094
-0.159194
19.7121
22.3129
21.0674
22.7695
3.03137
-6.55795
0.105447
-28.5901
-29.096
-30.0991
-9.91955
-11.122
-22.9015
-20.338
-21.0323
3.90068
4.63005
38.8099
28.176
28.351
-1.63971
-1.08433
-1.60183
-41.2425
-38.4404
-38.8842
9.15623
6.07982
7.41851
-16.7131
0.0764216
5.08663
6.53094
65.8297
20.3522
17.2297
15.1578
-0.192592
-0.482946
105.183
120.786
-12.547
-5.96148
-4.86042
-5.67381
-14.5181
12.4291
10.8275
11.3212
-9.76062
-8.50967
-6.30637
4.48017
1.68125
-1.13054
-2.10165
9.91395
-28.8199
-28.6797
-7.26068
-10.9558
-11.9936
-11.4716
6.30594
11.6731
11.481
25.0557
23.7819
5.36938
-11.9801
32.7434
32.7108
-16.2271
29.6565
-2.20726
-18.4223
-19.7198
-13.037
0.03323
0.0238641
0.0296611
5.57016
-5.36963
-0.0336401
-7.04026
26.2783
-13.9806
-0.312922
4.59775
6.27282
5.6443
-11.6331
0.133908
0.0779073
-0.0587855
15.2471
17.2014
17.6121
-11.3046
-10.0171
-13.8262
-5.88625
-6.06881
13.1769
-22.2961
15.1579
14.3336
12.8954
-5.513
-6.52977
-5.43039
-25.0625
16.1682
-0.316102
-0.157102
-8.91075
3.38558
3.59322
-12.5679
6.36608
0.0204622
-18.6369
0.359759
-3.68849
-2.97494
-3.43297
7.53316
9.29426
-34.067
-32.6176
-18.3425
0.0243161
0.024243
-18.3908
-22.8738
-0.0509864
-0.011729
-0.0526055
3.35198
3.82741
2.49512
-21.6703
-19.4346
87.4674
71.0262
12.0839
13.4564
20.9194
19.288
21.8319
-8.947
-1.2457
-0.798882
-18.9478
-20.4473
0.0346324
0.0206693
14.8026
13.1544
-2.93635
14.5943
12.7394
4.72549
-1.43348
-1.86038
-1.51884
0.623081
37.7191
-2.7754
-2.84452
-4.52869
0.0351907
32.8244
31.799
35.9869
-0.739328
5.33546
6.10645
5.21563
-37.3316
-35.3773
-0.0593132
-3.86363
12.7407
15.3727
14.5319
0.116398
0.128147
17.4554
0.00100056
-0.00252927
43.0765
0.0179142
2.18883
-14.2003
-12.8117
-11.7796
-11.9044
5.96792
6.70601
2.84476
2.75927
3.21134
-24.7558
-12.8444
-12.6645
-13.6308
16.422
-3.01082
2.59794
1.80592
-17.3642
-17.6232
-14.7566
7.78457
0.12777
10.4014
-2.74733
42.2324
-8.9564
-7.66188
-7.15191
37.5599
14.206
13.9367
18.902
-15.1266
0.110199
0.200779
4.08294
28.9175
-13.0381
4.87601
-13.5698
0.158444
13.4315
15.2373
-0.00382656
0.00474603
-9.6941
-16.9078
-16.1247
-15.3056
-18.0352
-16.6937
45.802
12.6901
-0.0146534
-2.90516
-1.67238
-1.9904
0.155343
0.00429737
-16.2306
-16.7483
-14.469
13.5693
7.49773
-0.606028
-0.508924
13.0112
-27.1426
7.26024
-15.2491
6.00787
-12.5953
35.4018
-17.6476
30.6282
6.39033
5.74082
-45.8326
-62.4311
-2.58512
-3.47557
-6.4661
-7.19852
-5.91113
2.4594
3.36812
-13.4091
0.0157746
0.023937
0.655348
-40.4403
-43.3489
22.8702
21.4416
14.4486
12.598
13.1702
1.99417
1.40526
2.79996
16.9289
-15.5808
-0.00223231
0.0693974
-0.302782
1.16453
1.00995
-1.07494
6.85686
-2.89029
-2.54606
-2.07446
-0.0120279
-0.0129558
-0.0222513
-10.5443
0.0746322
-12.3166
-10.4342
-19.5751
-20.8964
-0.00775824
-5.58964
1.03412
1.36717
0.920208
4.68424
-12.7962
-11.9956
13.6234
-4.50657
24.4327
25.3468
-3.78312
-4.20138
0.247094
0.368211
-14.4622
-8.70902
0.409733
0.259299
0.385894
1.27488
17.014
-15.0852
-0.407974
-0.245334
-21.3676
-21.3146
-26.2704
-28.0532
-13.4209
-13.3429
0.263853
34.6986
-14.8327
3.59746
4.187
-0.0524833
2.03396
2.44601
2.68662
27.6428
33.4167
1.57329
18.9228
0.338699
2.17331
2.45115
35.3283
36.7573
11.6237
12.1218
16.2638
-14.3622
-15.1036
-14.3647
-28.3322
-26.2234
-27.0359
-13.7477
-14.2905
-0.903069
-1.2316
-0.913364
-23.6228
-23.1326
0.84919
0.36855
3.51536
12.5057
11.8903
10.1178
5.49526
6.53269
-13.653
-26.2526
0.527816
1.15254
0.568773
-8.14259
2.51769
3.09021
32.4049
-11.8233
15.1095
-23.4501
-9.95749
-0.123273
-9.47686
-7.02947
-10.7456
-13.4989
-11.2974
24.9203
26.174
-13.3906
28.3123
-121.91
19.0384
19.573
0.43938
-0.79051
-1.61655
-14.8448
-19.4486
-10.0723
-12.2999
0.192383
-13.9592
-15.9941
-2.58328
0.0148751
15.6451
0.638795
-29.4924
11.0908
-1.619
-0.9112
-0.711856
-16.4436
-5.90489
-7.24182
-5.90475
0.0170959
0.0107469
0.0160558
2.55569
-12.1282
0.0267672
0.0251932
-2.42676
-2.24763
0.0249078
13.6324
14.7178
16.5324
15.9723
12.3525
0.0499649
0.0400607
0.00781813
-0.359054
24.6643
-50.8108
-49.7499
12.7349
12.5524
34.9394
-12.6629
-3.082
-0.117743
-0.205355
-0.122471
-0.0701876
-0.136061
3.28482
0.000617977
0.000628086
0.000434702
3.57979
2.89448
81.2213
57.096
0.0159216
9.29612
24.7854
24.7201
0.0403983
3.79525
3.92298
3.37932
-3.85863
6.04682
5.42045
4.49105
5.18543
4.83272
-0.00396925
12.8043
0.00451403
-0.0013484
1.42919
-0.0808486
2.12101
-19.6878
2.23955
3.4372
-13.3211
18.1878
-1.33224
0.00057591
-5.4041
-5.14213
-3.8509
-6.27823
-7.12061
-3.27039
-3.45416
109.758
60.9675
11.9586
3.32532
-13.9848
-0.310342
-6.86863
-6.44523
-0.58374
-10.3961
4.37974
13.1438
-0.00486662
12.3248
0.00222561
-6.22848
18.2458
18.3541
-5.40413
-6.92717
-13.9285
5.95617
19.7416
0.00191321
12.2941
16.4448
-21.9504
-24.1703
-23.1234
0.108757
0.145488
-0.293458
-0.46625
-0.384689
0.00959568
-0.00300179
-9.39482
-8.75137
-9.35068
14.7509
3.28649
22.3695
-4.52257
-1.27795
-0.752896
-1.35083
-1.08223
2.44476
4.83765
18.2961
0.914138
-23.6089
-21.9859
-10.4812
4.16472
3.73066
1.38469
1.72332
1.39007
1.31372
-4.77366
2.96481
-0.228375
-0.373715
4.05463
-7.40154
5.93874
-2.79916
30.1168
-2.74987
0.0255999
0.0272806
0.0259057
2.5931
22.9243
20.8185
23.164
-0.982745
-0.864764
-0.370358
39.316
39.6895
-14.0296
-0.132763
-20.7995
-6.146
-5.62997
-3.15802
28.0907
-20.055
10.9144
-0.74237
0.00252263
-19.3556
-6.75449
-19.3389
-0.011974
0.0209868
15.7411
-20.4023
-17.262
-17.164
88.3854
1.03925
1.42507
0.939828
-8.86654
-9.50102
-9.27801
4.08715
-36.8797
9.34829
9.04673
10.5609
-24.8511
0.0326725
0.0898006
-1.59477
-1.49978
20.2392
20.2099
111.595
2.11082
1.09249
0.733904
0.0509333
-3.42594
0.0832672
-1.08526
-0.723101
-1.33813
2.0845
-1.81257
-0.964732
4.91513
7.7705
3.18408
-14.0303
-15.384
-0.00421629
22.0952
25.623
22.5098
21.1415
20.1387
0.226888
-6.02863
-6.13922
-5.40107
14.549
-6.39612
-8.51006
-0.635683
53.249
-0.0105543
22.8593
46.5378
37.33
-3.39725
-4.48917
-8.46301
-8.68836
-5.48204
-5.12165
-6.32715
-5.31357
0.0212744
0.0254117
42.6498
0.0278378
0.137477
0.0611227
56.0854
-7.98578
11.2195
0.0279938
0.405921
15.8961
16.0535
17.3217
-0.619596
1.63763
1.71292
-6.11223
-1.51239
-1.3909
9.27816
10.6543
0.0156871
-0.00144953
-0.00383733
-0.00588758
6.24439
-1.89745
-2.52918
-19.2505
-0.00721687
8.92107
-0.0283822
-1.2115
-1.95055
-9.21043
0.00634693
-0.169832
-0.46056
-0.430494
-0.640186
-0.686545
-0.00259144
0.00948883
-0.254649
0.161821
0.0683571
24.9962
27.238
-7.93208
-29.1024
-28.1201
-0.626808
-0.615439
0.0817377
-4.88067
3.55732
-1.23998
4.37581
1.10097
6.58321
-2.31522
3.92579
-11.3613
-29.9266
19.772
-13.1959
-6.99548
-7.12992
-15.3269
-15.8167
12.3242
2.32591
4.69906
-0.804326
4.80429
10.1216
0.360884
-15.6
-2.26591
-1.64945
-1.93091
-0.0437692
-0.135086
-0.26705
-0.304777
-0.010374
4.51992
18.3478
-20.2476
11.5093
-1.91414
4.04619
-0.888202
24.4662
11.8341
8.47004
6.99029
64.5897
10.6446
12.8479
-1.26723
1.00649
-30.4135
1.63773
1.2937
1.12873
-0.00824146
-3.47943
-4.37696
-23.3992
-8.48859
-31.7064
-30.4823
0.0713257
1.13351
-0.956274
27.3001
20.1281
-1.12741
7.36691
-30.089
-0.010676
0.0231665
0.0071478
0.0177542
21.2934
0.477809
0.520423
-1.36926
3.47049
0.637523
14.6661
10.1523
0.0182768
-4.06593
1.11441
-15.5698
21.6059
-4.71313
-7.41297
-2.22227
0.172191
-6.88968
-2.40457
-15.768
8.69645
7.54395
2.27234
-16.9602
0.0162876
-0.00948307
-15.4906
0.265432
0.094685
57.5773
18.8424
-9.81616
0.219335
3.39486
-4.46627
36.5067
-11.0992
-0.817505
-3.95896
0.0297314
0.0263972
10.0228
1.75615
11.8928
-1.58577
-21.7765
-29.8058
-31.0844
-1.60124
19.8233
-1.14895
-1.10781
-0.788834
-1.14912
-0.760065
-2.12233
0.0942048
-9.49607
25.1204
-9.34104
-12.0197
-11.2526
11.4756
10.3611
-10.959
-1.6561
-3.017
3.85632
3.17706
11.0224
0.0199534
-2.76025
0.274504
-10.3108
71.551
-0.0716112
-1.42394
-31.2283
-32.472
49.0819
-1.86396
-0.0806904
1.26607
-0.0549878
12.7382
-10.1235
2.1232
-8.17553
-1.99737
-8.97129
-10.0577
18.6837
16.5246
16.981
0.632503
0.778432
0.26847
-2.76482
10.1203
-2.81679
0.0113133
10.6872
0.0209346
-4.61934
-32.4691
-32.048
0.315479
-4.62688
12.2338
10.9872
-0.0779561
-25.5878
1.00292
0.574745
0.416388
-8.49352
-12.505
39.8699
-24.1237
20.8427
62.3654
-30.5265
0.880305
-16.7731
-17.1348
-17.6304
-8.41239
97.354
-0.00280761
7.04986
-3.1797
-13.6466
-30.2154
-0.0720444
-11.7786
49.5931
6.16835
1.47479
-2.78541
1.95523
-13.7377
-7.57963
-23.0966
-8.50726
15.8608
31.2593
-2.28922
-6.39485
0.322614
-0.215478
-1.89937
-13.3247
13.7064
4.31017
-32.8498
-0.00990136
-2.06945
23.4436
-0.982819
-7.76289
4.7005
18.8102
-14.6169
-8.05087
0.798486
0.996869
0.762387
17.7988
-15.007
-1.85958
-0.623418
2.66794
-0.00460641
-0.390334
10.6182
5.69351
-9.19305
-7.23776
0.985479
-27.1629
-4.19927
-21.943
32.4844
-1.17515
24.1205
0.609689
-0.0158765
-2.22505
-8.26718
-28.8435
-28.2116
12.9434
-25.4478
-45.5398
-7.95195
0.0220443
1.06733
3.58561
0.0241538
0.0262391
-46.9964
-45.9248
-27.3965
1.86234
-7.72749
-7.60125
-13.4212
-3.72067
-11.4672
-8.08279
-19.4621
0.0363788
1.79727
14.9403
0.022768
14.9596
12.1887
-6.89192
8.26615
-0.67132
-13.1825
-5.95284
9.23585
10.8836
1.10733
11.9462
4.86523
14.3571
0.237931
10.3368
11.0835
9.73743
3.24955
0.00974196
10.2885
-3.90484
-10.67
9.06333
0.05978
7.60051
-3.92646
0.542186
-42.0839
0.288808
-11.869
18.0964
7.39409
16.5015
12.1978
-17.1445
-14.677
-33.4404
-35.3857
-21.3462
4.80186
-7.1206
19.7319
9.89767
-8.76551
2.33322
0.504776
0.654785
-0.0160216
2.49175
19.5396
-0.0109205
-19.5774
7.33301
-11.1531
0.0688801
-22.7853
-20.4662
-0.676238
15.9005
0.417813
-38.292
14.5412
-0.00709601
7.01016
11.8128
32.5783
-6.08754
15.3942
0.480512
-7.38045
-6.6643
-6.54201
-2.94161
14.1418
-1.99826e-05
0.00425499
22.1293
0.0311294
-18.3174
-5.88651
29.2829
23.5194
-0.0929848
-26.9536
-0.190866
0.94438
-11.2349
-5.42426
16.5242
2.90073
5.94926
-0.728008
0.451505
-0.497137
18.28
9.46119
-0.0699629
-27.9496
-0.231377
-11.7776
0.0428421
-31.6999
6.8952
-3.28274
-2.73557
-2.15633
29.356
5.13293
5.35476
6.29393
6.49004
1.30672
-0.00388167
-15.9621
-31.4916
10.0374
-0.00145313
-12.7458
-12.1087
-0.0587166
7.82697
7.18791
-0.0266997
1.24149
-2.38311
0.492414
14.966
-23.5505
0.181987
27.3334
30.0449
26.6272
1.74946
-27.7925
5.85835
14.0723
13.2144
-5.13165
6.3548
4.99221
-8.45606
5.17567
6.60306
-0.00898868
6.20079
-0.803104
11.4499
1.40522
9.00977
12.4968
2.42929
2.80122
3.23127
9.90663
-0.168685
-14.5758
-8.61952
-0.135824
4.12646
5.01007
-29.3193
-2.22743
-1.73828
8.54162
0.0122628
-14.9615
-38.1526
-42.2453
0.0227953
28.9958
0.0109044
-0.457882
0.174215
0.195789
8.16608
-5.73573
-15.2361
-1.23594
2.40898
-0.10194
-14.2672
-0.00558221
-0.0897326
2.51955
-0.14905
0.86623
-25.6508
-1.35602
-1.28773
25.2125
-35.4086
-1.27246
7.67755
-11.3476
4.05166
4.81978
7.47985
-8.98437
-23.1218
-27.2745
-24.3333
-14.564
-15.1132
6.387
-10.1545
-28.5386
0.640434
8.45987
3.47433
32.4376
-1.66965
-8.75809
8.0638
-7.5265
1.5366
9.91707
10.1771
11.4351
-0.0145978
19.9537
-5.27627
2.34879
-0.0589347
-20.747
-4.348
-24.6718
2.61254
-10.8814
-1.11347
-1.34119
6.29832
-4.72413
2.8113
-15.0603
-2.46692
1.28416
-3.92964
10.5717
-7.07709
-24.568
1.48727
-29.9152
4.04993
-0.0235831
-18.7086
-2.41378
-3.49011
-3.24559
10.4246
0.395881
7.31561
-0.00667384
-11.7507
4.51826
51.2875
8.72719
-21.5067
-34.8557
-7.65809
0.341628
6.79132
26.157
29.2684
24.9754
4.08377
32.1949
-0.0403571
-1.76804
0.326463
8.27738
0.000631418
-6.80199
14.4695
63.2442
3.52158
-0.40672
-6.53416
-37.1809
-7.95835
-8.19367
35.2907
3.11747
0.920874
-0.280394
0.0185931
21.3296
2.01035
14.9052
-35.6622
2.75117
-26.2567
-14.9764
-7.9364
-0.0295914
17.3861
-0.407003
0.155978
8.43793
9.1548
-57.7204
17.5264
24.021
5.3834
17.1423
11.4682
8.02253
-9.71005
-2.87158
14.8965
47.2086
-35.2808
-0.0296983
-2.4969
7.91089
12.4262
44.7217
47.579
30.2819
44.7556
0.0294107
-6.91041
-5.6539
-4.61804
3.45306
2.51677
-23.8143
9.12559
-32.7443
28.2543
5.83484
-8.61326
4.10113
-20.9274
-11.3227
-0.117994
-1.00946
-10.574
16.3377
-2.72366
15.3449
-24.9191
0.216866
-7.04203
7.37565
-0.0508809
13.1391
-27.6305
-3.65433
-1.49745
-0.028249
4.30483
-2.07421
56.7859
11.0307
-0.29655
8.38647
-31.8763
-32.2091
23.0325
27.7653
-0.552011
-31.9499
-1.02593
-1.44152
21.5902
23.0064
21.6097
2.97346
3.75417
6.52877
-7.56964
-8.58265
-19.2353
-8.03889
-0.926229
19.7945
-4.46148
59.2753
0.758613
-36.2636
8.77319
0.0792958
-12.8506
-2.77827
-0.00491162
17.8619
-0.60476
25.2395
-27.0152
63.1721
-34.0352
2.56679
-0.00702609
0.340656
-35.9714
6.01345
-0.581013
-0.703702
2.03321
3.10499
-3.45512
3.22083
6.78991
-8.10634
39.2093
-1.48813
SCALARS Saturation float 1
LOOKUP_TABLE default
0
0
0
0
0
0
0
0
0
0
0
0
0
0
0
0
0
0
0
0
0
0
0
0
0
0
0
0
0
0
0
0
0
0
0
0
0
0
0
0
0
0
0
0
0
0
0
0
0
0
0
0
0
0
0
0
0
0
0
0
0
0
0
0
0
0
0
0
0
0
0
0
0
0
0
0
0
0
0
0
0
0
0
0
0
0
0
0
0
0
0
0
0
0
0
0
0
0
0
0
0
0
0
0
0
0
0
0
0
0
0
0
0
0
0
0
0
0
0
0
0
0
0
0
0
0
0
0
0
0
0
0
0
0
0
0
0
0
0
0
0
0
0
0
0
0
0
0
0
0
0
0
0
0
0
0
0
0
0
0
0
0
0
0
0
0
0
0
0
0
0
0
0
0
0
0
0
0
0
0
0
0
0
0
0
0
0
0
0
0
0
0
0
0
0
0
0
0
0
0
0
0
0
0
0
0
0
0.138519
0.0142479
0
0
0
0
0
0
0
0
0
0
0
0
0
0
0
0
0
0
0
0
0.0901403
0.0378888
0
0
0
0
0
0
0
0
0
0
0
0
0
0
0
0
0
0
0
0
0
0
0
0
0
0
0
0
0
0
0
0
0.175695
0
0
0
0
0
0
0
0
0
0
0
0
0
0
0
0
0
0
0
0
0
0
0
0
0
0
0
0
0
0
0
0
0
0.559929
0.689707
0.64501
0
0
0
0
0
0
0
0
0
0
0
0
0
0
0
0
0
0
0
0
0
0
0
0
0
0
0
0
0
0
0
0
0
0
0
0
0
0
0
0
0
0
0
0
0
0
0
0
0
0
0
0
0
0
0
0
0
0
0
0
0
0
0
0
0
0
0
0
0
0
0
0
0
0
0
0
0
0
0
0
0
0
0
0
0
0
0
0
0
0
0
0
0
0
0
0
0
0
0
0
0
0
0
0
0
0
0
0
0
0
0
0
0
0
0
0
0
0
0
0
0
0
0
0
0
0
0
0
0
0
0
0
0
0
0
0
0
0
0
0
0
0.305018
0.16511
0.240688
0
0
0
0
0
0
0
0
0
0
0
0
0
0
0
0
0
0
0
0
0
0
0
1
0.871866
0.8911
0.0869164
0.171019
0
0
0
0
0
0
0
0
0
0
0
0
0
0
0
0
0
0
0.127917
0.0307547
0.02709
0
0
0
0
0
0
0
0
0
0
0
0
0
0
0
0
0
0
0
0
0
0
0
0
0
0
0
0
0
0
0.314062
0.278708
0.196922
0
0
0
0
0
0
0
0
0
0
0
0
0
0.526123
0
0
0
0
0
0.783642
0.864876
0
0
0
0
0
0
0
0
0
0
0
0
0
0
0
0
0
0
0
0
0
0
0
0
0
0
0
0
0
0
0
0
0
0
0
0
0
0
0
0
0
0
0
0
0.0203855
0
0
0
0
0
0
0
0
0
0
0
0
0
0
0
0
0
0
0
0
0
0
0
0
0
0
0
0
0
0
0
0
0
0
0
0
0
0
0
0
0
0
0
0
0
0
0
0
0
0
0
0
0
0
0
0
0
0.661089
0.547191
0
0
0
0
0
0
0
0
0
0
0
0
0
0
0
0
0
0
0
0
0
0
0.169158
0
0
0
0
0
0
0
0
0
0
0
0
0
0
0
0
0
0
0
0
0
0
0
0.42817
0
0
0
0
0
0
0
0
0
0
0
0
0
0
0
0
0
0
0
0
0
0
0
0
0
0
0.107936
0
0
0
0
0
0
0
0
0
0
0
0
0
0
0
0
0
0
0
0
0
0
0
0
0
0
0.310037
0
0
0
0
0
0
0
0
0
0
0.035759
0
0
0
0
0
0
0
0
0
0
0
0
0
0
0
0
0
0
0
0
0
0
0
0
0
0
0
0
0
0
0
0
0
0
0
0
0
0
0
0
0
0
0
0
0
0
0
0
0
0
0
0
0
0
0
0
0
0
0
0
0
0
0
0
0
0
0
0
0
0
0
0
0
0
0
0
0
0
0
0
0
0
0
0
0
0
0
0
0
0
0
0.212544
0
0
0
0
0
0
0
0
0.30294
0
0
0
0
0
0
0
0
0
0
0
0
0
0
0
0
0
0
0
0
0
0
0
0
0
0
0
0
0
0
0
0
0
0
0
0
0
0
0
0
0
0
0
0
0
0
0
0
0
0
0
0
0
0
0
0
0
0
0
0
0
0
0
0
0
0
0
0
0
0
0
0
0
0
0
0
0
0
0
0
0
0
0
0
0
0
0
0
0
0
0
0
0
0
0
0
0
0
0
0
0
0
0
0
0
0
0
0
0
0
0
0
0
0
0
0
0
0
0.668864
0.535619
0
0
0
0
0
0
0
0
0
0
0
0
0
0
0
0
0
0
0
0
0
0
0
0
0
0
0
0
0
0
0
0
0
0
0
0.807431
0.740653
0
0
0
0
0
0
0
0
0
0
0
0
0
0
0
0
0
0
0
0
0.112084
0
0
0
0
0
0
0
0
0
0
0
0
0
0
0
0
0
0
0
0
0
0
0
0
0
0
0
0
0
0
0
0
0
0
0
0
0
0
0
0
0
0
0
0
0
0.37325
0
0
0
0
0
0
0
0
0
0
0
0.01405
0.0139093
0
0
0
0
0
0
0
0
0
0
0
0
0
0
0
0
0
0
0
0
0.725067
0
0
0
0
0
0
0
0
0
0
0
0
0
0
0
0
0
0
0.796418
0
0
0
0
0
0
0
0
0
0
0
0
0
0
0
0
0
0
0
0
0
0
0
0
0
0
0
0
0
0
0
0.416051
0
0
0.307514
0
0
0
0
0
0
0
0
0
0
0
0.127916
0
0
0
0.3604
0
0
0
0
0
0
0
0
0
0
0
0
0
0
0
0
0
0
0
0
0
0
0
0
0
0
0
0
0
0
0
0
0
0
0
0
0
0
0
0
0
0
0
0
0
0
0
0
0
0
0
0
0
0
0
0
0
0
0
0
0
0
0
0
0
0
0
0
0
0
0
0
0
0
0
0
0
0
0
0
0
0
0
0
0
0
0
0
0
0
0
0.489609
0
0
0
0
0
0
0
0
0
0
0
0
0
0
0
0
0
0
0
0
0
0