# vtk DataFile Version 2.0
Two phases flow simulation
ASCII
DATASET UNSTRUCTURED_GRID
POINTS 2108 float
0.711599 0.416223 0 
0.755747 0.401852 0 
0.71641 0.377915 0 
0.830677 0.721121 0 
0.822709 0.711646 0 
0.834549 0.709632 0 
0.0861303 0.0145516 0 
0.0824305 0 0 
0.104172 0 0 
0.98256 0.906998 0 
0.987982 0.895466 0 
1 0.899702 0 
0.229933 0.104337 0 
0.236293 0.12287 0 
0.251537 0.111264 0 
0.660584 0.68674 0 
0.672761 0.705767 0 
0.648495 0.70483 0 
0.328726 0.0690313 0 
0.354904 0.0773511 0 
0.346085 0.0553132 0 
0.795523 0.748079 0 
0.792192 0.75967 0 
0.801107 0.756058 0 
0.243437 0.29804 0 
0.254743 0.275609 0 
0.263094 0.29711 0 
0.76723 0.729599 0 
0.762669 0.743932 0 
0.77582 0.740912 0 
0.904591 0.744756 0 
0.910374 0.754351 0 
0.921551 0.736711 0 
0.240497 0.857107 0 
0.261493 0.836511 0 
0.236529 0.830867 0 
0.495585 0.205269 0 
0.518865 0.185037 0 
0.520159 0.202722 0 
0.906137 0.27026 0 
0.914316 0.285857 0 
0.903284 0.285189 0 
0.136636 0.370529 0 
0.143151 0.393309 0 
0.120505 0.38883 0 
0.351954 0.520971 0 
0.36344 0.557884 0 
0.326339 0.5316 0 
0.341166 0.653158 0 
0.310935 0.654906 0 
0.330663 0.684831 0 
0.848517 0.899732 0 
0.84652 0.907545 0 
0.84062 0.900752 0 
0.311519 1 0 
0.382154 1 0 
0.354107 0.96353 0 
0.899599 0.902407 0 
0.896564 0.910805 0 
0.890703 0.903434 0 
0.0352553 0.389573 0 
0 0.36039 0 
0.0499164 0.358931 0 
0.703734 0.904949 0 
0.687529 0.90534 0 
0.69587 0.915017 0 
0.0746033 0.14487 0 
0.0788447 0.13629 0 
0.0679391 0.132944 0 
0.0238254 0.0802787 0 
0.0296396 0.0909498 0 
0.0142045 0.0887743 0 
0.42544 0.241963 0 
0.443285 0.231109 0 
0.45351 0.255355 0 
0.884142 0.20384 0 
0.939637 0.157555 0 
0.91353 0.210513 0 
0.245606 0.240891 0 
0.246235 0.220929 0 
0.260522 0.23137 0 
0.740456 0.788832 0 
0.746708 0.807508 0 
0.759133 0.794486 0 
0.380319 0.721554 0 
0.351246 0.745094 0 
0.375258 0.771513 0 
0.0662439 0.379131 0 
0.667217 0.868227 0 
0.69055 0.851767 0 
0.664099 0.845767 0 
0.823681 0.918691 0 
0.829232 0.925225 0 
0.820537 0.926775 0 
0.111535 0.697736 0 
0.102538 0.711429 0 
0.118887 0.710644 0 
0.334263 0.0912684 0 
0.391709 0.854939 0 
0.372516 0.890158 0 
0.344844 0.853663 0 
0.293921 0.634438 0 
0.32112 0.627459 0 
0.402686 0.382701 0 
0.400755 0.363306 0 
0.420181 0.367904 0 
0.985651 0.960345 0 
0.986639 0.938488 0 
1 0.95351 0 
1 0.97554 0 
0.42939 0.267674 0 
0.449493 0.278647 0 
0.229751 0.0869634 0 
0.219426 0.0950649 0 
0.231036 0.234428 0 
0.233159 0.24982 0 
1 0.75878 0 
0.977159 0.750767 0 
1 0.717804 0 
0.986813 0.921975 0 
1 0.933668 0 
1 0.915798 0 
0.254323 0.317543 0 
0.596083 0.295903 0 
0.561224 0.280721 0 
0.593236 0.260857 0 
0.525934 0.231581 0 
0.504073 0.236889 0 
0.516824 0.217517 0 
0.220123 0.260485 0 
0.208522 0.25073 0 
0.219101 0.243801 0 
0.896615 0.73597 0 
0.908065 0.732484 0 
0.206608 0.124117 0 
0.188287 0.119148 0 
0.195639 0.132847 0 
0.981972 0.981416 0 
1 1 0 
0.178499 0.782542 0 
0.149641 0.741777 0 
0.137945 0.772483 0 
0.247787 0.0941053 0 
0.266025 0.100935 0 
0.537777 0.745484 0 
0.564718 0.743693 0 
0.561889 0.761325 0 
0.692738 0.617825 0 
0.668549 0.628583 0 
0.695652 0.635993 0 
0.294841 0.190587 0 
0.294845 0.172823 0 
0.281095 0.181503 0 
0.262253 0 0 
0.269334 0.0235797 0 
0.252872 0.0222846 0 
0.265355 0.080175 0 
0.0640876 0.219846 0 
0.0721738 0.204049 0 
0.0547323 0.199704 0 
0.544515 0.882586 0 
0.54152 0.897742 0 
0.557735 0.891 0 
0.724252 0.915111 0 
0.709241 0.923242 0 
0.869534 0.516388 0 
0.843329 0.520358 0 
0.855711 0.551265 0 
0.740805 0.440595 0 
0.740317 0.908647 0 
0.73925 0.922591 0 
0.614905 0.613369 0 
0.630605 0.629149 0 
0.600346 0.633367 0 
0.288732 0.442035 0 
0.317677 0.460863 0 
0.295311 0.470718 0 
0.955988 0.259633 0 
0.966103 0.243967 0 
0.972142 0.263188 0 
0.1605 0.0697043 0 
0.168154 0.0713669 0 
0.16205 0.0627144 0 
0.714521 0.804845 0 
0.711172 0.82323 0 
0.72405 0.813635 0 
0.0879322 0.545464 0 
0.0994513 0.527293 0 
0.109112 0.55411 0 
0.536125 0.773021 0 
0.160322 0.181351 0 
0.163246 0.198168 0 
0.178158 0.18859 0 
0.265622 0.211041 0 
0.109174 0.114506 0 
0.112712 0.127906 0 
0.100734 0.123661 0 
0.0113485 0.0114569 0 
0.00426249 0.0101551 0 
0.0065461 0.00654827 0 
0.254023 0.128587 0 
0.250813 0.201076 0 
0.0133274 0.147998 0 
0.0180245 0.133063 0 
0 0.132005 0 
0.622764 0.703671 0 
0.636846 0.713168 0 
0.149836 0.0880041 0 
0.152222 0.0987119 0 
0.14595 0.0942042 0 
0.919569 0.884998 0 
0.915073 0.873244 0 
0.927579 0.874131 0 
0.268572 0.117823 0 
0.283497 0.122852 0 
0.280579 0.10754 0 
0.556755 0.874468 0 
0.572383 0.881932 0 
0.143329 0.0466907 0 
0.130119 0.0396059 0 
0.145099 0.0299289 0 
0.649642 0.670827 0 
0.631984 0.668308 0 
0.64889 0.64996 0 
0.389545 0.935188 0 
0.354671 0.927275 0 
0.753632 0.916796 0 
0.339983 0.133913 0 
0.357359 0.125322 0 
0.341392 0.117155 0 
0.823246 0.534791 0 
0.823477 0.562209 0 
0.951795 0.496624 0 
0.980084 0.495914 0 
0.958363 0.522107 0 
0.0801423 0.22451 0 
0.0809811 0.212933 0 
0.11501 0.106094 0 
0.122375 0.115156 0 
0.387877 0.342566 0 
0.368095 0.329938 0 
0.366069 0.352367 0 
0.591916 0.914731 0 
0.59843 0.925061 0 
0.588024 0.923212 0 
0.497688 0.803513 0 
0.469282 0.810085 0 
0.485834 0.838744 0 
0.555987 0.328359 0 
0.673265 0.735842 0 
0.66985 0.722782 0 
0.661616 0.730955 0 
0.109926 0.29861 0 
0.125862 0.292728 0 
0.124286 0.308471 0 
0.124635 0.681724 0 
0.098151 0.687408 0 
0.723473 0.646777 0 
0.703097 0.663448 0 
0.971852 0.967063 0 
0.833447 0.916946 0 
0.287814 0.245445 0 
0.282314 0.224128 0 
0.302685 0.230168 0 
0.919239 0.917167 0 
0.92219 0.92725 0 
0.909447 0.926939 0 
0.593367 0.203956 0 
0.565536 0.216252 0 
0.573131 0.194847 0 
0.941454 0.321425 0 
0.931751 0.322979 0 
0.938097 0.331062 0 
0.803675 0.792816 0 
0.812484 0.783246 0 
0.820654 0.797204 0 
0.376901 0.481716 0 
0.366417 0.452595 0 
0.346943 0.472858 0 
0.235463 0.265295 0 
0.58075 0.469973 0 
0.528937 0.451753 0 
0.543482 0.487152 0 
0.80589 0.76532 0 
0.789387 0.773 0 
0.283784 0.916755 0 
0.318837 0.949258 0 
0.324287 0.898575 0 
0.267052 0.477803 0 
0.419627 0.394457 0 
0.0745586 0.238874 0 
0.0292557 0.149701 0 
0.769983 0.162352 0 
0.728739 0.18102 0 
0.726261 0.141682 0 
0.172507 0.169906 0 
0.161743 0.158444 0 
0.606193 0.10228 0 
0.626324 0.0764161 0 
0.634263 0.108215 0 
0.918853 0.590311 0 
0.941844 0.585121 0 
0.941087 0.561563 0 
0.803212 0.806756 0 
0.787968 0.793937 0 
0.788086 0.816509 0 
0 0.00201876 0 
0 0.00468006 0 
0.00146326 0.00361949 0 
0.926758 0.330325 0 
0.933826 0.336406 0 
0.633208 0.971238 0 
0.614369 0.951415 0 
0.651801 0.954783 0 
0.4377 0.412343 0 
0.413634 0.415845 0 
0.689256 0.786223 0 
0.702941 0.773404 0 
0.680866 0.769396 0 
0.393128 0.104837 0 
0.400576 0.129106 0 
0.414781 0.117269 0 
0.0338109 0.107884 0 
0.0400043 0.0961623 0 
0.26882 0.629003 0 
0.254918 0.605722 0 
0.275654 0.597258 0 
0 0.221947 0 
0 0.185878 0 
0.025529 0.192682 0 
0.0989993 0.113518 0 
0.356719 0.14838 0 
0.338923 0.150538 0 
0.772107 0.647274 0 
0.750797 0.660671 0 
0.773599 0.670638 0 
0.141002 0.0888127 0 
0.0958666 0.439068 0 
0.107455 0.461646 0 
0.120148 0.436662 0 
0.901882 0.955629 0 
0.893055 0.944729 0 
0.905525 0.941347 0 
0.134059 0.252987 0 
0.123671 0.257305 0 
0.134472 0.266413 0 
0.116739 0.34188 0 
0.133475 0.344845 0 
0.117425 0.325751 0 
0.606288 0.853574 0 
0.588541 0.870856 0 
0.605812 0.880033 0 
0.504351 0.774655 0 
0.52779 0.805497 0 
0.751496 0.784171 0 
0.142976 0.322024 0 
0.785432 0.680846 0 
0.773016 0.685547 0 
0.928562 0.907539 0 
0.924264 0.896242 0 
0.935404 0.897923 0 
0.033811 0.133556 0 
0.104415 0.276906 0 
0.11452 0.285243 0 
0.119848 0.270833 0 
0.55431 0.857999 0 
0.543012 0.869132 0 
0.537316 0.854889 0 
0.0696827 0.0190947 0 
0.00276949 0.006322 0 
0.316641 0.561858 0 
0.513885 0.853462 0 
0.526505 0.877533 0 
0.491157 0.878632 0 
0.0315756 0.329165 0 
0.0619972 0.30813 0 
0.0313633 0.300678 0 
0.199406 0.8553 0 
0.760006 0.572956 0 
0.741024 0.602002 0 
0.771828 0.59688 0 
0.0781387 0.526878 0 
0.281256 0.200058 0 
0.0292734 0.121974 0 
0.457359 0.112794 0 
0.470474 0.0807103 0 
0.441553 0.0935687 0 
0.153226 0.0644377 0 
0.333331 0.259703 0 
0.319967 0.240308 0 
0.304999 0.254437 0 
0.150243 0.267941 0 
0.145169 0.255772 0 
0.156491 0.255737 0 
0.310915 0.184489 0 
0.0999059 0.340738 0 
0.248441 0.56511 0 
0.223577 0.578727 0 
0.224929 0.555857 0 
0.281507 0.163366 0 
0.543378 0.809052 0 
0.550735 0.796865 0 
0.651366 0.793478 0 
0.623829 0.800702 0 
0.628381 0.775121 0 
0.0882162 0.280511 0 
0.0931631 0.267398 0 
0.802345 0.739838 0 
0.808765 0.750773 0 
0.278081 0.314448 0 
0.661928 0.889434 0 
0.649003 0.872534 0 
0.0340506 0.078704 0 
0.768843 0.622114 0 
0.83747 0.925578 0 
0.833366 0.933321 0 
0.696873 0.576412 0 
0.727191 0.576129 0 
0.713146 0.546136 0 
0.13236 0.814483 0 
0.138482 0.869013 0 
0.434864 0.450589 0 
0.889992 0.921498 0 
0.90113 0.919715 0 
0.769412 0.533615 0 
0.785987 0.535212 0 
0.775308 0.509293 0 
0.124571 0.529234 0 
0.138387 0.508165 0 
0.112756 0.506983 0 
0.0873108 0.624113 0 
0.0724858 0.585589 0 
0.0466805 0.609283 0 
0.732033 0.851069 0 
0.729222 0.867167 0 
0.717585 0.855197 0 
0.063809 0.25742 0 
0.0838174 0.2553 0 
0.710298 0.872315 0 
0.705432 0.856417 0 
0.332657 0.370318 0 
0.346309 0.379386 0 
0.347632 0.360875 0 
0.779252 0.952145 0 
0.789061 0.945143 0 
0.779478 0.935248 0 
0.949099 0.328738 0 
0.729381 0.676391 0 
0.0707368 0.117853 0 
0.0810675 0.117481 0 
0.0801454 0.126807 0 
0.314046 0.165915 0 
0.84376 0.892421 0 
0.854515 0.893622 0 
0.814625 0.702107 0 
0.810588 0.715029 0 
0.406378 0.437895 0 
0.0940286 0.909318 0 
0.136248 1 0 
0.0506498 0.947181 0 
0.871174 0.936215 0 
0.867978 0.924293 0 
0.87863 0.925265 0 
0.152202 0.357516 0 
0.936939 0.862592 0 
0.937805 0.87787 0 
0.0427297 0.050987 0 
0.0471779 0.041684 0 
0.0535019 0.0492835 0 
0.201198 0.109817 0 
0.190003 0.103398 0 
0.524159 0.153945 0 
0.549147 0.130581 0 
0.547982 0.175259 0 
0.957694 0.899459 0 
0.963707 0.908396 0 
0.952121 0.908401 0 
[...]
POINT_DATA 2108
SCALARS Pressure float 1
LOOKUP_TABLE default
9.01832
-0.0752247
8.29475
-9.87274
-9.41793
-8.70878
22.6437
14.6361
9.51311
-26.1128
-18.2994
-13.7762
11.6559
12.6662
9.9812
-7.56791
-8.38667
-7.32184
3.56458
3.13125
2.90552
-13.3739
-14.252
-13.9949
12.5312
13.9004
12.5355
-12.021
-12.7873
-12.8192
-7.45274
-7.78901
-5.94822
0.0988801
0.11163
0.108914
2.0918
1.5183
1.6453
0.140368
0.141554
0.147141
4.11955
3.46037
2.97765
2.41815
1.52956
2.1339
0.381803
0.427061
0.247841
-22.1372
-20.9913
-20.5438
0.0636661
0.157111
0.119801
-31.5506
-31.4193
-30.187
1.08985
0.785744
1.88666
-5.27105
-4.4387
-4.45151
22.5377
26.0057
24.3824
29.0156
26.6856
20.4439
4.66149
3.79784
3.83863
0.117741
0.0615644
0.101862
15.8627
16.3289
15.1527
-12.8009
-13.0871
-14.1956
-0.0495913
0.0542678
-0.0393986
1.86144
-4.86718
-6.85319
-5.52164
-15.5802
-15.6786
-14.1812
0.132402
0.110855
0.126728
4.01724
-0.00951612
0.0582809
0.0733529
0.567135
0.619876
6.03125
6.44654
5.68215
-48.6439
-35.9222
-44.2755
-60.7644
4.94633
4.29946
10.016
11.965
16.8487
15.9227
-3.39542
-4.45165
-0.819586
-30.6958
-33.8569
-23.1929
11.2424
1.07974
1.50572
1.02884
1.78564
2.24426
1.82572
15.3162
16.1128
16.6222
-7.3025
-6.41629
17.0253
19.7705
19.8606
-69.068
-119.442
0.112004
0.124418
0.0945599
8.90583
7.90192
-2.46826
-3.37187
-3.05426
-5.7989
-6.0336
-6.62105
11.1229
10.2
11.9659
3.71951
3.79364
3.80706
6.49785
9.97887
12.4545
11.4154
-0.931087
-0.730841
-1.01968
-5.9377
-4.76283
-0.551316
-0.82254
-1.17154
-0.315595
-7.33753
-6.4334
-4.50587
-5.31336
-4.54013
4.77132
4.2666
3.74341
0.0975723
0.0851024
0.0820468
17.3508
16.1906
15.7459
-10.4736
-9.56742
-10.9837
0.468028
0.609437
0.511347
-2.12589
23.4804
21.3289
22.2029
14.6242
35.9131
32.9988
33.7805
183.505
186.42
252.283
11.1573
15.8544
11.5628
13.0131
13.1639
-6.1335
-6.79475
23.926
25.2505
26.2761
-29.3786
-26.9081
-25.8817
8.92669
8.05655
7.2782
-1.22499
-1.40229
15.9053
17.0033
12.301
-6.86372
-6.20635
-6.3419
0.0692523
0.0967696
-7.81316
5.25791
4.27139
4.59172
-1.26429
-1.86205
-0.0078776
0.0396027
-0.0609496
10.9096
12.2537
36.2007
34.0276
7.20598
8.16548
7.84048
-1.23447
-1.17533
-1.03022
-1.02382
-0.60756
-0.611781
1.70928
-8.67454
-8.4589
-8.04514
6.66334
8.03734
6.81947
0.16908
0.127762
-7.18825
-7.90438
-57.6385
-17.4135
13.1434
13.3844
11.8353
-35.7499
-37.2995
-34.2962
0.833565
1.1456
0.966334
0.131741
0.136414
0.132505
-16.7458
-16.2602
-17.5333
3.48386
4.53592
3.8974
14.8701
-0.101814
1.26529
0.218944
-14.7469
-15.095
0.0928707
0.100349
0.0996606
3.20013
5.28661
8.94112
13.1841
0.187452
0.255723
0.220099
23.962
25.6824
0.389348
0.269384
0.323656
-0.957747
-0.619221
-0.39893
-17.4461
-16.0726
-16.6018
398.532
259.791
310.384
0.141944
0.137392
-0.92711
-0.981331
-1.68726
4.40591
4.95833
-9.07512
-10.2665
-8.8504
2.78593
3.07118
2.52572
22.0599
29.1103
0.582421
0.733644
0.869862
2.93547
6.92202
9.75327
36.6049
5.03784
5.97475
-6.53741
-7.74418
-7.95521
26.7816
1.37503
1.21975
1.79947
-27.9401
-27.2881
-31.8401
12.2562
11.0341
10.8991
4.62346
5.16432
5.44538
-2.82713
-1.95055
-2.2156
-1.3795
-1.55043
-13.5841
6.90225
-8.35286
-8.97787
-34.5232
-31.8727
-31.6232
16.0107
7.89024
7.90633
9.47086
-1.40979
-1.06781
-1.14575
34.1585
243.204
1.47958
-0.821023
-0.754845
-0.41146
2.06325
3.84273
2.93749
0.083192
-3.24373
-4.7467
-3.99696
0.513413
12.8113
17.207
1.68357
1.16302
1.68406
17.8037
10.1162
10.726
11.9767
11.8107
12.7569
13.5292
9.45239
4.02307
1.14085
0.859867
1.11977
10.8723
-1.85699
-2.21337
-6.45408
-4.82132
-5.63332
6.54548
7.86008
-12.5942
-13.4386
11.3817
-3.87422
-3.88515
35.5264
-5.23468
-17.0254
-15.319
-4.02938
-3.80033
-2.81261
0.0700968
0.0491871
3.57762
-29.524
-32.3841
-1.86912
-1.71369
-1.24593
0.729787
1.00519
0.820933
0.21279
0.276004
0.158778
-10.0605
-8.93046
-8.63131
6.42459
8.17248
-7.23197
-7.65676
8.06922
7.51083
8.13901
-7.1488
-8.65718
-8.60927
0.126522
-8.75148
30.5495
33.1968
29.5176
8.27408
-21.8244
-23.7086
-8.97575
-10.1928
4.50603
0.0138421
-0.00842703
-0.0077493
-22.6355
-23.653
-26.1925
5.28016
-21.3218
-25.4441
69.1853
73.5123
66.8548
16.2136
17.3031
1.20794
0.82161
1.09952
-28.7925
-30.7114
-32.8717
-6.92065
-7.64859
3.14122
-11.6866
-11.6771
1.7197
1.3392
4.03692
39.5013
-17.2524
-18.8133
-5.75349
0.388433
0.473505
0.341499
0.186757
0.236441
0.171806
0.471883
0.490641
0.368273
24.0222
-20.8132
-20.0728
-18.2782
11.6245
11.3014
13.0405
7.38411
-30.5736
-28.4047
0.136671
4.03833
3.33053
38.0883
-0.00207114
3.56534
6.67282
5.9287
-28.8444
4.61585
0.142468
0.1456
0.13101
5.26359
10.7179
4.05554
4.87655
3.90263
0.101058
-0.131714
-0.165145
0.716874
-2.65279
-2.81626
-3.29551
1.2732
1.64441
-16.0464
-21.1033
-17.9816
-1.65949
15.8792
16.7678
15.4586
17.3337
16.8643
4.97234
112.721
141.261
5.7899
-30.4894
-15.2668
0.13286
0.12225
0.136877
0.0985716
0.115025
-14.7334
-14.4018
-17.4293
-1.03277
5.32802
4.58264
-5.14272
-5.02438
-10.6001
-21.9701
-18.528
-19.8797
0.137072
0.174301
0.170143
0.0595542
0.0754359
0.0825206
-2.58097
-2.80312
-3.20181
-20.3745
-18.7729
-0.0324736
0.0507924
-0.792676
0.160498
7.32464
12.2035
9.33526
10.6454
2.85999
-1.33005
-2.43125
-1.96344
14.5264
14.3336
-12.7161
-13.4329
-5.44274
-6.44615
-5.05007
0.174496
0.107623
-9.68777
-7.24296
-8.51919
19.4695
20.9618
21.9966
0.115453
30.0811
29.436
31.4895
1.48455
1.37783
-6.70914
0.320096
15.3063
3.10538
2.949
143.521
11.4923
28.7928
0.255566
-2.17893
-1.69983
-10.2507
-11.129
0.125122
0.13614
-0.440642
-0.17242
-14.2107
0.520416
7.06934
6.93835
8.07161
-20.4652
-18.6786
2.57032
3.20792
-3.93822
-3.36889
-3.08384
307.787
408.72
322.787
-16.1183
-14.8936
0.16458
0.0824511
0.0900818
0.113516
1.55795
1.58618
2.03309
-18.4865
-19.4981
6.75681
14.1539
-6.78331
35.2241
17.3232
63.548
-0.147414
0.0258575
-0.519103
-2.48246
-2.85067
20.5141
21.8223
19.7817
252.591
0.157242
0.154927
3.26188
-7.3623
-0.505611
0.857616
7.38759
0.168622
0.153455
0.176411
1.06428
13.3641
0.132312
-2.2137
-0.0059964
-6.7322
-21.0004
26.0212
-0.107016
20.4807
12.172
10.3224
-3.24279
-2.2473
-29.3992
3.98498
1.23081
-19.2778
0.225899
0.227862
37.6661
39.359
-6.08985
0.170348
22.4594
0.207911
15.1476
-15.3248
0.906863
9.19643
2.2122
1.54831
1.89371
0.586595
1.33565
-19.0776
9.78137
10.332
8.99956
0.55784
0.769405
0.748996
-5.44256
-5.54711
-9.06122
0.844103
0.747124
0.648093
-0.596295
4.72672
3.71396
25.7426
28.6664
25.6483
3.28656
5.57091
4.39973
-9.03986
0.82027
0.0805688
-10.8603
24.4772
-3.85878
-0.71095
-11.8287
95.1427
-16.9345
-2.5557
0.101142
-1.10298
-22.9272
-22.2996
-0.366256
-0.245659
-0.0772052
-1.03757
1.10948
-4.6436
21.9659
0.166155
0.156397
-6.96062
-6.61638
0.3681
21.9292
20.2321
18.6759
9.83297
8.14739
9.93765
15.5652
-27.3327
-28.0782
-29.0607
-14.0363
0.0743895
2.73334
19.3991
17.5027
17.0152
-7.2782
-6.31895
13.6954
11.2472
-4.7304
-4.87772
11.2862
10.8594
8.37579
0.180429
-16.0391
-4.62901
-5.34028
8.13538
5.37245
6.53501
17.1508
0.288369
34.7646
30.1855
32.5992
-34.288
-32.9828
0.157032
0.226359
6.50637
20.4091
9.4231
9.36909
12.6055
-0.326791
-0.405497
6.54522
0.11959
0.113558
0.102211
-0.562166
-0.873269
0.731673
-8.22658
-7.3214
-8.51276
7.16731
-9.03168
18.2496
2.1956
2.73057
6.04601
7.13766
6.22303
-26.1877
-25.2543
42.9695
-25.9062
7.52046
8.33588
-21.3478
-24.4023
18.5609
17.5102
0.405609
-7.91102
37.1611
-6.66135
17.8121
20.2513
-4.58089
-5.59932
-7.19338
-5.93957
18.0406
0.0436091
-0.0130587
0.0672098
1.12844
0.778983
5.51046
5.66586
6.31157
6.92619
5.24828
-6.36323
0.164317
-23.2112
0.0927292
11.7304
4.39889
-11.6884
-10.7748
9.1635
12.2056
-3.88539
-4.40405
1.29794
3.79928
5.34564
5.38998
0.0498662
8.10931
-0.327139
-0.301871
-1.32066
18.785
21.2809
1.333
-45.6754
-26.6945
30.5085
27.4016
0.143233
23.642
22.4444
-0.717575
1.94851
-0.130526
-0.282067
-0.30151
-12.594
-9.55715
1.45331
-1.82275
19.8787
18.34
-33.7453
-32.2047
0.0884988
0.092465
0.0869972
-3.05546
-48.4985
-56.2857
-34.9768
0.136134
0.135879
-8.32241
-7.64562
-7.00898
1.85796
2.21958
-7.82103
-23.5863
-24.9864
16.0378
0.128961
385.44
9.71094
0.0982889
0.150554
0.11566
-16.3035
-13.8165
-17.5047
19.5442
26.253
-17.7301
-3.10923
0.101262
0.0645536
0.113119
4.72059
3.204
2.76399
-11.9615
-12.796
3.29051
-10.6957
5.19131
5.57914
6.5092
-10.4392
-0.929728
11.4392
10.7561
0.103072
-34.2517
-3.63667
-3.84795
-4.65011
0.0544747
0.141311
0.169952
0.067308
0.172675
2.28001
2.47717
-11.3678
-12.7308
-14.4388
0.176384
-0.102891
-0.0687005
-0.205361
0.149804
-23.1701
-4.43726
3.1991
-25.2758
-24.7648
-23.8904
-7.79438
-6.09649
3.30429
0.0225392
0.0647858
2.91489
0.0870812
13.1489
-5.80128
-11.945
18.5217
-3.67425
250.92
1.67223
-10.3452
-17.9471
-10.4475
-10.0588
10.9113
-8.86857
9.63569
-8.27373
-0.0639259
0.0100617
0.0640375
28.5376
0.128674
0.158148
31.1303
15.0959
-4.23765
-3.81791
13.5422
15.5682
14.3983
13.935
13.9268
14.9802
-18.431
-15.8868
-18.4481
5.09688
5.18776
6.17896
-4.94305
-10.7615
-11.3077
10.6413
-1.50044
-1.81008
-13.5121
1.15374
-1.77823
-1.69153
-5.97166
-2.17509
13.5554
15.3905
13.1227
10.5173
-1.47911
-1.44974
0.486898
0.168044
0.226804
-4.82608
8.48742
4.54891
0.245
0.102547
0.127392
0.421129
-17.0817
-1.62194
-4.45676
-5.68182
-5.50307
5.1937
-5.24059
0.0627389
0.0814007
13.4727
0.0112485
-7.56933
-10.9556
0.116667
8.86537
14.3022
9.2404
-0.569339
12.7424
-6.66031
-1.91056
-1.63474
-1.80096
-0.207433
0.0951356
0.189321
-12.0829
-12.3801
-10.5103
15.6298
13.612
277.315
9.7592
2.95323
-1.23765
0.133404
-19.5336
0.0815501
0.109551
0.101655
-1.85843
-5.19608
0.118543
79.3766
0.148446
0.164086
0.151075
4.33846
9.42945
-14.2457
0.514765
0.476136
-12.8651
0.753219
0.00455898
0.0590699
-0.896274
-0.972321
-1.60512
-9.48559
-24.6647
-25.9161
26.3542
30.3099
13.9709
-21.0335
-1.62556
11.0968
88.2532
-19.3808
5.62384
0.0648711
-12.2889
-11.3096
-10.21
-36.232
30.729
-8.47416
-5.09995
13.9291
12.2919
0.432576
13.4304
0.102466
-0.777945
-0.45423
-0.49449
-14.0994
17.643
-15.2547
0.601532
0.855912
1.75682
15.0786
9.41816
-17.997
4.56799
0.0801347
0.0902668
0.103515
8.21296
7.58737
-2.16207
-2.30303
-3.65751
-2.76
14.0107
-4.34601
-6.20596
5.71954
-8.94423
-9.84635
-9.42069
-11.6531
173.482
-0.536943
-37.7104
0.0884741
0.0917163
-10.524
11.2396
-9.91957
-9.85323
-10.2461
-23.5738
3.17827
-4.74128
-9.46502
0.697511
15.478
0.0305058
-4.31856
0.0948487
0.441826
-4.69336
7.98028
2.17983
-1.9893
0.0896726
-9.92044
-10.0381
-1.9356
-6.85627
-6.06589
1.54637
56.7731
14.39
15.5359
3.48825
2.78014
-8.01837
-6.09995
29.8454
27.8889
28.5711
27.664
-6.86511
-1.57008
-0.246864
-11.7812
-13.0499
13.1983
12.4343
12.9677
-11.9847
-13.8021
-15.8049
13.1636
1.2395
-5.36363
-3.64357
12.6019
0.082814
0.069183
-5.49535
-22.4265
-23.9497
98.2392
-9.76587
23.9818
34.351
-9.41264
0.419549
0.326942
16.2708
-0.310932
-9.35108
-1.74235
36.8783
-1.65369
18.6648
3.37608
21.2277
0.0625801
-0.994248
65.3184
-5.16737
-1.29122
-17.0773
0.92346
0.620002
-35.0233
-32.2651
4.0185
3.6516
-8.59587
21.2339
-5.05792
-3.65213
5.79053
3.3724
2.99093
-10.6062
0.0823926
2.45501
-3.69758
-0.005773
0.218194
-1.429
0.0329378
36.973
0.144357
33.6985
40.9113
-8.64982
1.98713
11.058
-15.9518
-13.4007
0.232767
55.223
-41.017
-44.2933
-44.6426
14.2702
5.7995
-6.38405
12.8698
-6.53384
-1.43209
-12.5197
0.620097
-16.6855
1.3704
0.0677489
19.404
-7.09225
-0.529697
3.97154
5.58014
-11.4
0.10049
-37.07
-9.19202
172.628
6.92823
0.216341
-1.79114
-1.33644
30.7865
-10.0575
-0.247248
-0.238952
-0.564969
5.97729
-31.3966
-30.6453
-8.15088
-9.17157
-10.594
29.0504
27.2868
-9.30019
-3.96526
16.6202
13.9594
13.9369
0.0806447
-9.99742
-11.7367
-4.60948
-11.5025
14.938
0.108553
1.17761
2.18363
0.0957094
-3.35808
-5.1769
-14.4484
-13.7042
-29.0633
-27.5162
-27.5812
69.8459
0.148183
0.343119
13.1258
12.0295
12.1658
60.9318
88.3779
-5.8242
-6.01798
34.0952
0.632187
10.6873
-8.06782
0.645784
9.9281
-22.0686
12.8951
46.9317
47.0729
-1.44466
4.14005
-5.30473
0.28867
-0.416407
-0.615999
7.31281
2.24297
-10.4431
20.8546
-16.6318
-0.456487
-9.55247
9.4198
15.3698
0.694173
7.01573
12.2549
11.9141
0.0799905
0.0980576
3.84241
3.41595
0.100642
0.0901547
1.97051
-7.94306
9.65784
-5.53972
-20.3953
-21.0307
-21.4572
32.1038
-8.28744
0.398016
0.143063
2.59565
1.01946
0.0986541
0.14537
11.6853
7.42086
-6.77383
8.18847
-0.842034
12.3281
-3.04975
2.49201
-30.922
0.0672113
-13.4661
0.580218
-0.0983376
12.5053
38.9358
0.00572325
-40.8171
10.8342
6.64614
51.5563
-5.37735
-3.24233
0.152089
-17.6643
-4.77492
18.0316
9.89552
-20.5653
-3.16918
0.163308
-9.26294
18.1391
16.6729
-19.3836
12.621
19.2552
1.10833
-19.7788
-15.7656
5.0139
0.669613
-13.8213
1.5915
0.11931
-2.36794
-8.46603
13.9852
-6.05406
6.62039
11.4749
20.1946
0.0125029
0.127025
33.9396
-1.28448
-11.0331
-10.111
7.28963
7.94641
-14.0199
-22.6395
-21.9458
1.83858
-1.38015
-1.80182
-1.52159
23.097
0.241485
0.208782
22.4307
0.622844
0.155127
31.6585
-0.234761
-0.322504
-6.5934
0.0390934
0.0851549
-2.05164
-29.4292
-0.354802
1.55612
-7.28618
0.982623
0.768591
-5.2522
21.2004
5.82356
15.1375
13.6763
-9.3981
2.15563
0.192509
0.109678
4.25818
0.36407
4.85785
-1.58411
-0.573259
-14.1113
0.117898
20.6504
0.923858
-15.7969
-15.1127
4.79367
-25.2426
1.38935
4.63253
3.64834
6.47049
0.459767
0.332343
19.2034
16.9091
-28.0652
-14.1924
-15.498
0.23169
-26.1966
0.390679
2.58337
0.208788
7.64121
5.99583
25.7095
-0.0533031
6.32573
6.28615
-2.45558
-2.75617
10.0491
12.6855
7.10807
6.26052
4.50412
0.754502
0.931324
1.80049
2.18885
-0.339879
45.6642
44.2871
2.24292
0.206917
0.456449
14.7805
19.0068
12.8372
-1.54798
4.65996
-12.7446
1.15632
26.6149
0.585708
-22.1705
-16.2974
0.131705
-27.8367
-25.9403
0.246337
13.963
-12.5533
-24.0235
13.5046
-17.7426
-20.0281
9.43195
-4.1485
30.8716
1.35919
1.08993
18.1184
19.2312
34.0643
41.7384
-12.7001
-10.5725
19.8874
18.4273
27.1449
2.81583
3.17855
0.221226
3.53074
-0.444662
-6.40757
-5.32154
-4.26765
8.68438
0.189707
-0.430765
10.8665
20.6989
5.44796
5.61596
-3.78428
19.8549
19.5668
0.658537
-4.00736
2.13247
1.05697
0.137077
-7.50918
0.279647
20.5553
-1.18605
22.5566
-0.228126
-8.19579
0.0157722
-4.40832
3.70997
0.172399
0.353757
-13.1667
-9.7521
0.465038
-31.0094
-9.06098
8.38895
23.2636
-4.15564
-0.95317
-0.887473
-12.6425
-1.05821
-13.5225
28.6869
0.15566
0.353856
0.912554
1.57186
0.0252766
-1.7824
-16.3784
2.4809
61.744
-15.8988
-11.8754
-11.5222
-18.8074
3.52873
8.74019
17.4639
18.0916
4.42304
-30.0349
-2.4163
0.0432203
-3.02526
-0.338715
-19.9327
0.0487714
0.0756334
-5.63637
-1.82224
-1.14458
-9.1066
-11.867
-11.3367
-11.2074
-13.9972
58.8121
59.9887
15.2675
-23.8032
-5.67866
4.74343
6.68225
19.2763
6.20854
-3.23459
23.2379
-9.38085
-10.0383
-2.90004
2.62792
-2.31485
-28.3133
0.131839
2.40241
-6.73829
3.91575
34.4223
24.6415
27.8823
11.401
-22.2986
-2.24458
-2.72342
-13.2626
-7.93057
28.7782
24.714
-19.1324
-17.5742
-14.7707
-31.5021
15.1361
-10.9167
-5.85627
-26.7827
-31.1345
48.2051
-2.10361
-3.16327
0.568493
4.26361
6.21014
16.4888
7.45206
31.4518
30.6804
0.296689
17.0193
2.58048
-0.970239
-20.723
0.0572628
7.86058
-11.7462
57.2708
20.971
79.9213
-3.99737
3.35744
4.15156
132.498
0.498942
-0.106168
0.313284
-8.85642
0.964243
-13.3799
-15.2975
0.141901
5.70253
74.4246
2.64903
-7.87704
-21.9419
-4.88018
-5.41862
-5.33948
48.4806
32.8311
-0.193578
0.86301
14.2821
-26.9753
13.9682
7.30268
-1.46281
-0.926247
31.049
6.99103
-5.22112
-12.5146
12.7908
-7.81025
-8.52006
-0.807819
12.7991
0.0824238
-7.25682
13.7065
-6.19787
-2.03547
16.5251
-12.7563
-12.6985
-13.9279
-0.719018
0.277702
0.282798
0.31163
0.0895004
47.2517
48.5265
-13.7263
-13.5109
-0.0126544
-49.4975
-22.4712
5.28622
39.9763
0.100097
17.4794
0.16419
23.7779
0.209379
-11.976
-10.6928
37.8701
-11.1604
0.202682
6.96397
-23.4822
25.6168
20.8526
-27.1039
-13.6517
0.113525
0.229396
1.55462
1.84552
13.971
-15.3699
33.3692
28.4607
0.0860129
4.0828
0.0928095
-10.5978
-3.25523
-5.18694
-24.6327
16.054
-3.63379
-2.82704
-19.1281
-1.79657
-10.6103
-33.4337
10.4979
16.7275
-7.40914
3.09319
93.349
11.7905
0.855897
-11.5991
38.1394
-2.06133
-4.7146
-7.79236
24.0347
-26.815
3.31445
2.93918
0.543802
0.194412
0.100541
-8.13203
-7.80869
0.294821
-26.0556
-7.66152
19.9483
51.8376
41.1985
-4.99986
-9.70263
10.5106
-12.3934
0.0901246
-0.603669
0.0990585
1.59208
-2.22118
-8.5657
0.246313
0.266827
9.18918
2.79387
-1.4379
55.4926
1.23384
1.112
16.4389
26.2275
49.58
7.63145
0.191827
3.45877
7.20406
-14.9426
-0.107633
-4.97452
-26.0297
0.501802
-24.4864
-18.0934
-8.23471
-12.8685
3.99531
-3.25259
7.25494
2.62084
0.0912036
0.0828366
-11.2046
0.482633
53.9812
51.9737
-0.243301
14.9778
20.8077
-0.0406501
-15.1073
4.59829
-12.5364
2.28596
-6.31928
-36.9591
-8.73376
-40.0564
9.14205
19.8711
18.526
3.3094
25.0579
3.72027
-0.633824
-12.8198
0.150179
-3.78465
-19.4765
-20.4918
15.4058
28.597
1.25487
5.29034
-0.883136
26.4286
41.6036
-0.0216637
0.0279
-3.79734
1.61486
-15.5514
-19.558
-11.0072
2.37612
2.33308
-7.27607
13.8444
28.2909
-14.4641
0.262998
0.616518
55.4408
0.356389
15.8212
0.178078
-42.1659
22.8984
-25.5219
-30.9202
-29.196
-29.1733
0.0750966
-1.01392
-16.774
0.0352742
-0.00529046
8.78369
-2.71035
-1.30268
-0.902752
-0.536702
1.83948
6.75439
46.7453
-0.519179
-0.0705652
-16.3937
15.2363
15.1498
-10.6021
13.6227
-11.541
38.4512
-13.6813
-18.5944
-18.3465
-10.8946
-0.130527
-2.42616
-1.91921
106.028
-11.6818
-11.1255
0.152608
3.93919
41.7721
-15.8307
-3.09465
8.86528
15.6407
0.93632
-2.43658
44.6046
-7.79471
0.129989
-16.2628
-39.2961
-24.9808
11.0992
23.382
24.2604
7.96693
17.9993
15.923
0.758909
-4.14296
-1.45285
13.5093
3.02976
-11.879
-0.023128
0.0539001
-3.56492
0.329352
0.301605
0.263064
13.9216
-13.1139
-9.36863
0.304949
0.13317
3.68527
14.9667
-14.1295
2.65702
14.5564
22.3957
107.295
134.364
4.61415
-2.40108
-8.49837
1.24886
-22.8866
-11.7359
-0.594019
26.0906
25.8521
627.398
-1.05748
0.349127
22.5938
-28.7709
-1.70739
-4.6468
8.88538
-2.02946
9.94518
-12.6419
-7.88585
2.68093
-0.420596
0.725831
-0.599542
-2.39357
18.9272
8.29395
-4.96464
0.138661
-2.83527
3.9262
-14.4333
2.97378
-14.0679
-3.55284
0.128232
-12.1243
-35.887
3.336
39.1033
14.2099
10.0049
-1.30767
-15.843
-0.578203
13.3514
-40.6416
-11.7617
0.0016912
9.38073
1.90966
-10.4658
-14.0256
22.3605
-4.17098
0.143938
-3.22304
0.298211
-0.240064
-5.25906
-0.0128937
-27.6905
-11.5034
7.80537
115.618
-3.81728
-14.178
97.8789
-0.838493
-12.594
-23.0876
-2.99881
SCALARS Saturation float 1
LOOKUP_TABLE default
0
0
0
0
0
0
0.138519
0.175695
0
0
0
0
0
0
0
0
0
0
0
0
0
0
0
0
0
0
0
0
0
0
0
0
0
0
0
0
0
0
0
0
0
0
0
0
0
0
0
0
0
0
0
0
0
0
0
0
0
0
0
0
0
0
0
0
0
0
0
0
0
0.196922
0.0901403
0.112084
0
0
0
0
0
0
0
0
0
0
0
0
0
0
0
0
0
0
0
0
0
0
0
0
0
0
0
0
0
0
0
0
0
0
0
0
0
0
0
0
0
0
0
0
0
0
0
0
0
0
0
0
0
0
0
0
0
0
0
0
0
0
0
0
0
0
0
0
0
0
0
0
0
0
0
0
0
0
0
0
0
0
0
0
0
0
0
0
0
0
0
0
0
0
0
0
0
0
0
0
0
0
0
0
0
0
0
0
0
0
0
0
0
0
0
0
0
0
0
0
0
0
0
0
0
0.882406
0.897395
0.932898
0
0
0
0
0
0
0
0
0
0
0
0
0
0
0
0
0
0
0
0
0
0
0
0
0
0
0
0
0
0
0
0
0
0
0
0
0
0
0
0
0
0
0
0
0
0
0
0
0
0
0
0
0
0
0
0
0
0
0
0
0
0
0
0
0
0
0
0
0
0
0
0
0
0
0
0
0
0
0
0
0
0
0
0
0
0
0
0
0
0
0
0
0
0
0
0
0
0
0
0
0
0
0
0
0
0
0.979812
0.953199
0.963443
0
0
0
0
0
0
0
0
0
0
0
0
0
0
0.0378888
0
0
0
0
0
0
0
0
0
0
0
0
0
0
0
0
0
0
0
0
0
0
0
0
0
0
0
0
0
0
0
0
0
0
0
0
0
0
0
0
0
0
0
0
0.30294
0.936095
0
0
0
0
0
0
0
0
0
0
0
0
0
0
0
0
0
0
0
0
0
0
0
0
0
0
0
0
0
0
0
0
0
0
0
0
0
0
0
0
0
0
0.212544
0
0
0
0
0
0
0
0
0
0
0
0
0
0
0
0
0
0
0
0
0
0
0
0
0
0
0
0
0
0
0
0
0
0
0
0
0
0
0
0
0
0
0
0
0
0
0
0
0
0
0
0
0
0.489609
0.527712
0.46438
0
0
0
0
0
0
0
0
0
0
0
0
0
0
0
0
0.314062
0
0
0
0
0
0
0
0
0
0
0
0
0
0
0
0
0
0
0
0
0
0
0
0
0
0
0
0
0
0
0
0
0
0
0
0
0
0
0
0
0
0
0
0
0
0
0
0
0
0
0
0
0
0
0
0
0
0
0
0.807431
0.857381
0
0
0
0
0
0
0
0
0
0
0
0
0
0
0
0
0
0
0
0
0
0
0
0
0
0
0
0
0
0
0
0
0
0
0
0
0
0
0
0
0
0
0
0
0
0
0
0
0
0
0
0
0
0
0
0
0
0
0
0
0
0
0
0
0
0
0
0
0
0.918116
0
0.278708
0
0
0
0
0
0
0
0
0
0
0
0
0
0
0
0
0
0
0
0
0
0.962894
0.981899
0.963023
0
0
0
0
0
0
0
0
0
0
0
0
0
0
0.505931
0.606288
0.61981
0
0
0
0
0
0
0
0
0.934887
0
0
0
0
0
0
0
0
0
0
0
0
0
0
0
0
0
0
0
0
0
0
0
0
0
0
0
0
0
0
0
0
0
0
0
0
0
0
0
0
0
0
0
0
0
0
0
0
0
0
0
0
0
0
0
0
0
0
0
0
0
0
0
0
0
0
0
0
0
0
0
0
0
0
0
0.871866
0
0
0
0
0
0
0
0
0
0
0
0
0
0
0
0
0
0
0
0
0
0
0
0
0