# vtk DataFile Version 2.0
Two phases flow simulation
ASCII
DATASET UNSTRUCTURED_GRID
POINTS 1831 float
0.0527137 0.162828 0 
0.038825 0.166268 0 
0.0532714 0.176493 0 
0.977053 0.888913 0 
0.986662 0.878456 0 
0.987982 0.895466 0 
0.514691 0.57772 0 
0.514216 0.621859 0 
0.533795 0.599998 0 
0 1 0 
0 0.886883 0 
0.0506498 0.947181 0 
0.608663 0.68087 0 
0.622764 0.703671 0 
0.637365 0.686134 0 
0.84376 0.892421 0 
0.831551 0.894449 0 
0.84062 0.900752 0 
0.792544 0.633379 0 
0.813517 0.646072 0 
0.814146 0.62315 0 
0.946499 0.918461 0 
0.960801 0.923721 0 
0.952121 0.908401 0 
0.133176 0.0571974 0 
0.130119 0.0396059 0 
0.143329 0.0466907 0 
0.970635 0.877603 0 
0.0588536 0.0602662 0 
0.0535019 0.0492835 0 
0.0479319 0.0595308 0 
0.55679 0.56071 0 
0.362825 0.375842 0 
0.349514 0.397738 0 
0.346309 0.379386 0 
0.882697 0.71552 0 
0.873834 0.729971 0 
0.868279 0.71408 0 
0.971852 0.967063 0 
0.973104 0.947252 0 
0.955257 0.958316 0 
0.148247 0.16555 0 
0.161743 0.158444 0 
0.145116 0.14944 0 
0.588975 0.706864 0 
0.136248 1 0 
0.932736 0.933436 0 
0.917843 0.937954 0 
0.928439 0.945985 0 
0.346943 0.472858 0 
0.341496 0.446738 0 
0.366417 0.452595 0 
0.971461 0.899959 0 
0.832009 0.636307 0 
0.740456 0.788832 0 
0.738883 0.76801 0 
0.751496 0.784171 0 
0.194932 0.0810428 0 
0.187036 0.078011 0 
0.189709 0.0897105 0 
0.895372 0.883397 0 
0.885294 0.889751 0 
0.892333 0.895103 0 
0.145099 0.0299289 0 
0.624287 0.473217 0 
0.630067 0.429384 0 
0.606609 0.448589 0 
0.267042 0.170471 0 
0.266426 0.189731 0 
0.281095 0.181503 0 
0.182244 0.0856949 0 
0.324762 0.389302 0 
0.811074 0.92935 0 
0.820537 0.926775 0 
0.816633 0.933963 0 
0.627597 0.275487 0 
0.665792 0.256639 0 
0.622358 0.239428 0 
0.172848 0.0906696 0 
0.175581 0.0824445 0 
0.029155 0.213811 0 
0.0221671 0.23927 0 
0.0440677 0.225966 0 
0.0864723 0.190193 0 
0.0973745 0.197883 0 
0.0845174 0.201492 0 
0.0399972 0.182536 0 
0.874425 0.850471 0 
0.860325 0.855306 0 
0.876103 0.860705 0 
0.332657 0.370318 0 
0.856542 0.921798 0 
0.848891 0.933123 0 
0.860773 0.930703 0 
0.884861 0.688483 0 
0.901092 0.702158 0 
0.901648 0.678607 0 
0.0233841 0.0571545 0 
0.0121965 0.049392 0 
0.010417 0.0604594 0 
0.14549 0.0577529 0 
0.209134 0.023618 0 
0.230272 0.0254647 0 
0.221061 0.0427029 0 
0.419078 0.491454 0 
0.473214 0.472062 0 
0.434864 0.450589 0 
0.881268 0.841024 0 
0.864435 0.841251 0 
0.565918 0.690714 0 
0.58449 0.658436 0 
0.871174 0.936215 0 
0.859289 0.940132 0 
1 0.295655 0 
1 0.333943 0 
0.981288 0.32188 0 
0.472021 0.415434 0 
0.898469 0.65628 0 
0.919595 0.659777 0 
0.527778 0.535961 0 
0.872318 0.830176 0 
0.867486 0.811346 0 
0.854762 0.82273 0 
0.785398 0.716807 0 
0.782596 0.728941 0 
0.774196 0.718802 0 
0.621195 0.651602 0 
0.0292557 0.149701 0 
0.0180245 0.133063 0 
0.033811 0.133556 0 
0.884368 0.58789 0 
0.856915 0.604783 0 
0.873078 0.619242 0 
0.886996 0.727819 0 
0.226973 0.478316 0 
0.199144 0.510946 0 
0.239262 0.504574 0 
0.870907 0.745851 0 
0.885092 0.739329 0 
0.600346 0.633367 0 
0.456494 0.300279 0 
0.43618 0.317304 0 
0.431374 0.292577 0 
0.819296 0.599811 0 
0.838908 0.616385 0 
0.740805 0.440595 0 
0.748279 0.485084 0 
0.713896 0.481589 0 
0.583768 0.952166 0 
0.559108 0.948916 0 
0.566264 0.973337 0 
0.792819 0.909626 0 
0.803614 0.900998 0 
0.803852 0.909221 0 
0.0605902 0.122737 0 
0.0575663 0.132026 0 
0.0509885 0.121759 0 
0.0454723 0.129755 0 
0.953933 0.401486 0 
0.934653 0.386745 0 
0.935716 0.417376 0 
0.281507 0.163366 0 
0.243437 0.29804 0 
0.224135 0.297255 0 
0.236454 0.281525 0 
0.648495 0.70483 0 
0.884142 0.20384 0 
0.934702 0.216043 0 
0.894401 0.23445 0 
0.0434585 0.153625 0 
0.946509 0.898929 0 
0.957694 0.899459 0 
0.053194 0.0711587 0 
0.957067 0.876316 0 
0.966023 0.866745 0 
0.800185 0.914937 0 
0.137054 0.080869 0 
0.127078 0.0821279 0 
0.134207 0.0719648 0 
0.798727 0.580823 0 
0.819782 0.581946 0 
0.0682517 0.55281 0 
0.0532654 0.508999 0 
0.0781387 0.526878 0 
0.728769 0.722999 0 
0.731702 0.745088 0 
0.708563 0.735501 0 
0.866499 0.952563 0 
0.904477 0.253911 0 
0 0.476181 0 
0 0.415047 0 
0.0420698 0.451753 0 
0.0724858 0.585589 0 
0.0893755 0.565462 0 
0.0427297 0.050987 0 
0.588035 0.123637 0 
0.549147 0.130581 0 
0.578031 0.101544 0 
0.892363 0.828292 0 
0.177638 0.0753224 0 
0.184123 0.0682972 0 
0.482575 0.255598 0 
0.470362 0.229228 0 
0.504073 0.236889 0 
0.759133 0.794486 0 
0.870407 0.762536 0 
0.859714 0.749781 0 
0 0.545774 0 
0.79669 0.922171 0 
0.782692 0.920326 0 
0.790616 0.931893 0 
0.395587 0.187854 0 
0.404465 0.173588 0 
0.411183 0.186463 0 
0.295016 0.0995172 0 
0.280579 0.10754 0 
0.27887 0.0934353 0 
0.80619 0.922103 0 
0.406805 0.206213 0 
0.113548 0.0318926 0 
0.104302 0.0466787 0 
0.0979175 0.0360138 0 
0.411282 0.306148 0 
0.777544 0.707214 0 
0.302332 0.370253 0 
0.562657 0.594681 0 
0.71561 0.759405 0 
0.746708 0.807508 0 
0.727393 0.797564 0 
0.105778 0.585289 0 
0.504486 0.263357 0 
0.649856 0.216364 0 
0.967003 0.307316 0 
0.972065 0.282933 0 
0.0422251 0.418772 0 
0.266025 0.100935 0 
0.411849 0.894732 0 
0.437368 0.943806 0 
0.451225 0.892251 0 
0.98256 0.906998 0 
0.136688 0.138255 0 
0.126968 0.150466 0 
0.594999 0.576809 0 
0.590008 0.606337 0 
0.941516 0.265394 0 
0.766125 0.781612 0 
0.890832 0.809753 0 
0.892052 0.795331 0 
0.87723 0.79877 0 
0.0340506 0.078704 0 
0.0296055 0.0685577 0 
0.0238254 0.0802787 0 
0.111546 0.203306 0 
0.132275 0.200162 0 
0.11801 0.188207 0 
0.387877 0.342566 0 
0.368095 0.329938 0 
0.388655 0.319346 0 
0.505104 0.506557 0 
0.452373 0.530617 0 
0.245132 0.647893 0 
0.26882 0.629003 0 
0.277167 0.655519 0 
0.944866 0.944904 0 
0.54152 0.897742 0 
0.516682 0.905383 0 
0.541676 0.915963 0 
0.873118 0.966707 0 
0.854845 0.963506 0 
1 0 0 
0.864561 0 0 
0.926547 0.0832418 0 
0.122375 0.115156 0 
0.138707 0.117037 0 
0.126312 0.128016 0 
0.809296 0.914558 0 
0.0571213 0.112238 0 
0.0356945 0.0583513 0 
0.836625 0.163364 0 
0.846439 0.213842 0 
0.105113 0.187015 0 
0.695652 0.635993 0 
0.66999 0.64866 0 
0.687994 0.652806 0 
1 0.915798 0 
1 0.933668 0 
0.986813 0.921975 0 
0.356968 0.424939 0 
0.383085 0.429937 0 
0.897943 0.864348 0 
0.903189 0.873382 0 
0.90986 0.863012 0 
1 0.883334 0 
0.710298 0.872315 0 
0.734219 0.881746 0 
0.709021 0.889085 0 
0.138387 0.508165 0 
0.124571 0.529234 0 
0.112756 0.506983 0 
0.0640221 0.170247 0 
0.83747 0.925578 0 
0.833447 0.916946 0 
0.829232 0.925225 0 
0.959202 0.372035 0 
0.703097 0.663448 0 
0.0327711 0.0473477 0 
0.557735 0.891 0 
0.544515 0.882586 0 
0.867978 0.924293 0 
0.109174 0.114506 0 
0.11501 0.106094 0 
0.937343 0.954463 0 
0.925794 0.960569 0 
0.194529 0.0695301 0 
0.321019 0.354689 0 
0.201739 0.238968 0 
0.219101 0.243801 0 
0.213565 0.22572 0 
0.32626 0.595574 0 
0.32112 0.627459 0 
0.348317 0.627099 0 
0.96218 0.327674 0 
0.953419 0.316564 0 
0.808334 0.937276 0 
0.819367 0.690165 0 
0.814625 0.702107 0 
0.807138 0.691826 0 
0.0402354 0.121306 0 
0.128814 0.181041 0 
0.120457 0.171943 0 
0.0537912 0.152426 0 
0.45351 0.255355 0 
0.179514 0.912668 0 
0.226792 0.948151 0 
0.283784 0.916755 0 
0.324287 0.898575 0 
0.318837 0.949258 0 
0.354671 0.927275 0 
1 1 0 
0.974471 1 0 
0.981972 0.981416 0 
0.149272 0.130454 0 
0.963013 0.889389 0 
0.0228688 0.0439792 0 
0.201473 0.0883855 0 
0.886587 0.782339 0 
0.0296396 0.0909498 0 
0.76071 0.710015 0 
0.354818 0.102233 0 
0.3579 0.0731557 0 
0.373496 0.0937545 0 
0.593574 0.0751378 0 
0.606193 0.10228 0 
0.100748 0.740699 0 
0.0928913 0.728226 0 
0.107065 0.729434 0 
0.755747 0.401852 0 
0.768915 0.431449 0 
0.788223 0.413423 0 
0.616074 0.20281 0 
1 0.254203 0 
0.376592 0.610851 0 
0.369558 0.646565 0 
0.395806 0.638908 0 
1 0.387361 0 
0.906137 0.27026 0 
0.217295 0.756723 0 
0.226659 0.805114 0 
0.178499 0.782542 0 
0.347632 0.360875 0 
0.90257 0.853802 0 
0.700855 0.44992 0 
0.657271 0.330992 0 
0.651404 0.363601 0 
0.624782 0.346966 0 
1 0.114475 0 
0.281256 0.200058 0 
0.694931 0.306083 0 
0.656746 0.295612 0 
0.916907 0.376934 0 
0.916828 0.404807 0 
0.0638991 0.0498954 0 
0.0707368 0.117853 0 
0.0941639 0.382752 0 
0.115795 0.358354 0 
0.120505 0.38883 0 
0.526505 0.877533 0 
0.203328 0.452224 0 
0.25114 0.448605 0 
0.0133274 0.147998 0 
0.112515 0.0959381 0 
0.105951 0.104606 0 
0.489548 0.551612 0 
0.488659 0.578546 0 
0.498803 0.169543 0 
0.524159 0.153945 0 
0.518865 0.185037 0 
0.287814 0.245445 0 
0.304999 0.254437 0 
0.279848 0.262848 0 
0.09855 0.0206557 0 
0.10148 0.713851 0 
0.505196 0.13017 0 
0.174073 0.0389618 0 
0.188047 0.0522419 0 
0.18789 0.0279899 0 
0.263094 0.29711 0 
0.254323 0.317543 0 
0.287517 0.0804333 0 
0.146001 0.0790852 0 
0.819437 0.723577 0 
0.810588 0.715029 0 
0.812096 0.726766 0 
0.8387 0.873872 0 
0.852795 0.867775 0 
0.83816 0.859007 0 
0.611976 0.166973 0 
0.580104 0.189451 0 
0.236918 0.894722 0 
0.421675 0.0734316 0 
0.391643 0.0773999 0 
0.401496 0.0543057 0 
0.206679 0.293485 0 
0.208903 0.309802 0 
0.136636 0.370529 0 
0.190234 0 0 
0.209548 0.058908 0 
0.220853 0.0712953 0 
0.206042 0.0766117 0 
0.915073 0.873244 0 
0.476816 0.279551 0 
0.0861611 0.719664 0 
0.547982 0.175259 0 
0.177168 0.230421 0 
0.176239 0.243748 0 
0.166329 0.236357 0 
0.600857 0.975052 0 
0.389001 0.201894 0 
0.222219 0.280295 0 
0.104172 0 0 
0.0861303 0.0145516 0 
0.344844 0.853663 0 
0.30231 0.864314 0 
0.261493 0.836511 0 
0.25797 0.800756 0 
0.910373 0.827872 0 
0.926114 0.823453 0 
0.914581 0.816111 0 
0.131065 0.165104 0 
0.876122 0.701057 0 
0.848517 0.899732 0 
0.0951085 0.181981 0 
0.792446 0.720663 0 
0.969978 0.23089 0 
0.585733 0.225372 0 
0.597651 0.541848 0 
0.141002 0.0888127 0 
0.0940286 0.909318 0 
0.242125 0.0426161 0 
0.780546 0.904567 0 
0.94054 0.908331 0 
0.204286 0.210114 0 
0.220078 0.207912 0 
0.390886 0.295168 0 
0.825144 0.933716 0 
0.543482 0.487152 0 
0.6201 0.916839 0 
0.607266 0.930859 0 
0.603025 0.91442 0 
0.838378 0.808777 0 
0.836002 0.828411 0 
0.805106 0.724675 0 
0.481689 0.916465 0 
0.874763 0.894968 0 
0.863629 0.896795 0 
0.866974 0.887744 0 
0.950334 0.816655 0 
[...]
POINT_DATA 1831
SCALARS Pressure float 1
LOOKUP_TABLE default
13.619
12.7792
12.5588
-16.4267
-15.3183
-16.5415
-1.51348
-2.0862
-2.19189
0
-0.0064886
-0.00193862
-4.59695
-5.08342
-5.27161
-15.1655
-14.2185
-14.9569
-5.73527
-6.04954
-5.25072
-21.7582
-22.3421
-19.6152
15.9398
15.6056
14.9086
-15.8394
26.05
27.0764
25.854
-1.96873
4.3754
4.14774
4.62133
-8.08626
-8.72192
-8.16613
-30.4773
-26.5627
-28.5895
14.2128
14.4688
15.4912
-4.42258
0.00665886
-24.9575
-21.9067
-23.7293
2.55658
3.19938
2.79462
-17.3713
-5.52495
-9.43565
-9.04704
-9.66156
12.4484
12.842
12.8287
-18.2803
-18.4062
-18.9814
14.1179
-1.35039
-0.645017
-0.700732
9.30021
9.53709
8.85502
13.2587
4.59309
-12.4242
-13.1955
-12.5931
0.526483
0.377587
0.670459
13.9072
13.7306
8.87267
7.49332
8.71121
12.7849
12.3287
12.1293
11.5378
-15.6056
-15.9251
-16.4163
4.9352
-15.9125
-15.0288
-15.9294
-6.93325
-7.22749
-6.20524
25.5551
26.7256
24.5051
15.1023
8.9827
8.00593
9.0245
1.34813
0.864632
1.82312
-14.893
-14.839
-3.77998
-3.90923
-16.4805
-15.5331
0.00321974
-0.0483934
-0.0573025
1.8256
-5.30315
-5.07143
-1.08079
-14.003
-12.8164
-13.4346
-8.89033
-9.14945
-8.79293
-4.59433
13.7014
14.5614
15.1649
-3.58476
-4.42987
-4.58378
-8.51643
2.85153
2.06225
2.30058
-9.43754
-8.98653
-3.95461
3.34338
3.64006
3.95632
-4.55311
-4.91189
-1.43773
-2.11526
-1.97986
-2.35598
-2.05894
-1.85985
-11.8731
-12.4635
-12.4951
16.756
16.0143
16.5239
15.7943
-0.344235
-0.348228
-0.499945
8.65784
8.00001
8.29385
8.58816
-5.82052
-0.00471974
-0.00507161
-0.0184233
13.9705
-18.0799
-17.767
23.743
-16.1741
-15.2271
-12.3007
16.406
17.1376
16.327
-4.1394
-4.03893
0.672722
1.07577
1.09481
-8.13716
-8.54917
-7.94208
-15.6473
-0.026934
0.960828
1.7136
1.67671
0.520514
0.70123
27.3636
0.78421
1.11357
0.812485
-13.9406
13.3933
12.6101
2.8371
3.11294
2.30431
-10.252
-10.2208
-9.7367
0.429602
-11.7793
-10.9258
-10.9468
4.70117
4.37043
4.24776
7.35286
8.1254
7.93631
-12.4165
4.47941
16.5163
17.6175
17.9862
4.27325
-8.49588
5.19846
-2.60379
-8.47503
-10.2044
-9.33631
0.617752
2.29982
0.504639
-0.0484179
-0.00591279
2.1451
8.62973
-0.753762
-0.695596
-1.06291
-18.3934
16.4057
15.4886
-2.93708
-3.3119
-0.0153916
-10.0769
-12.7727
-11.9599
-12.1248
21.6713
23.5179
21.0451
11.994
12.13
12.8338
4.41266
4.92675
4.60895
-0.22831
0.226728
0.518695
0.573354
0.371757
-26.9735
-2.33535
-1.86563
-2.1559
-15.6672
-14.413
0
-0.00738923
0.0022265
17.7468
16.4599
17.2542
-12.8142
17.3791
25.704
0.00988251
-0.0159786
12.927
-5.40546
-5.4958
-5.79626
-19.5722
-23.0681
-21.191
3.39937
2.93463
-16.7955
-17.5273
-16.7235
-15.1596
-8.01179
-8.84047
-7.76418
1.70987
1.35774
1.61185
13.4929
-14.4702
-14.4592
-13.9089
-0.172551
-6.24829
27.7657
-2.66216
-2.54073
-16.6293
18.3886
18.3645
-25.2073
-22.7609
11.9704
5.43882
10.4674
9.72286
10.492
0.621618
0.324744
0.228181
-0.0934793
-0.0815824
-11.8932
-7.70923
-8.21036
-7.87805
16.2193
13.2168
13.8301
14.4748
3.58004
-0.00585144
-0.0194738
-0.0867212
-0.229495
-0.119627
-0.240832
-36.0449
-31.055
-32.9703
15.572
-16.899
28.1166
12.1685
-11.2146
19.1384
-8.34367
4.835
4.26736
4.21164
0.590645
0.599271
0.0287313
0.0446144
0.0645444
-0.835654
-1.26605
-0.921888
0.693556
0.00902974
0.132867
-0.173777
-0.372722
-0.128661
-0.0439969
0.0114451
-0.0668272
0.0274732
5.00997
-15.9872
-1.42299
0.0957389
-0.106976
0.302056
0.0058823
9.02851
0.0152708
0.272239
-0.350069
-0.50512
25.0634
17.4136
3.95889
4.94844
4.25053
-2.30848
3.31415
3.56384
13.1859
18.5775
19.0803
-0.672782
-1.07939
2.153
1.59716
1.82672
8.26941
7.65265
8.17885
17.3879
0.0970029
1.86637
12.194
11.6443
10.654
7.7521
7.26845
7.22471
15.7295
-8.98648
-8.74237
-9.17716
-14.6863
-15.7628
-14.5775
0.71705
1.02227
-0.0413635
2.62892
3.46969
2.82628
8.52097
7.90769
4.99119
9.32834
10.503
10.2925
11.5133
-17.2734
2.96306
0.0539034
1.37469
11.001
10.3697
10.6131
-2.41007
4.96517
8.82419
16.1361
19.6264
-0.390494
-0.22485
-0.0923215
-0.109411
-13.9845
-13.4324
-13.1792
14.3216
-7.59463
-15.5708
13.2313
-9.10327
0.000566165
1.05775
-2.28219
16.3787
-0.00318917
7.99742
-11.169
-19.9619
11.3085
10.8434
4.78468
-13.2771
-0.557354
-3.89095
-3.3237
-3.49102
-12.7088
-13.7186
-9.16261
-1.21657
-17.6048
-16.7411
-16.9625
-11.9023
-13.1037
-12.6061
-0.261612
-9.13451
-8.85152
-12.0205
-12.7999
-12.1131
15.8645
5.50543
-16.7421
-12.918
4.18549
4.26116
-0.639702
-0.935348
-0.865888
28.5777
0.353478
0.292622
0.715026
0.824276
2.28476
0.0269629
-17.0413
-28.7336
-10.0935
-12.0035
-11.8043
1.32
2.05987
1.23419
-2.96151
-2.64973
-3.15636
-0.00740391
3.17321
-7.05604
-7.56336
-3.85374
14.6249
14.5967
13.6726
-0.0253111
-16.066
-5.41643
-5.13531
-6.26551
5.36121
-6.49961
9.54223
9.23336
9.13682
-8.56885
-8.78735
-9.04034
-25.9376
-8.28156
-8.24648
-8.78421
-7.84574
-7.56453
-6.34057
-0.045582
-9.28839
14.6674
32.6129
30.677
30.1454
-5.9735
9.18818
-8.49954
-16.916
-16.1792
-1.26185
-9.91475
-9.65265
-2.46576
9.85526
9.33053
9.74983
0.365516
-4.07932
-4.61545
-12.9207
10.3065
-0.162902
-0.135162
-0.0921488
7.43188
-0.226346
-0.135743
-0.374709
-4.94135
-16.302
13.1361
-9.03175
-9.7047
-9.30128
-2.29333
-0.118231
-0.126918
-0.138116
-15.4493
-11.062
-6.15381
15.7727
15.3452
14.9237
-1.43701
-1.28519
24.2948
-1.70725
-1.70696
-1.25123
-0.0818637
-8.7945
-1.79108
-0.000919984
0.171511
-1.61575
-2.18809
-1.97431
-0.0995699
2.04776
-3.81041
-4.51037
-4.08089
1.91476
-5.54175
-5.36529
-6.00198
-8.28854
-7.13528
-7.90945
0.390906
-7.36538
-3.45763
-3.63959
10.3864
10.9613
-26.9499
-24.4269
-5.99194
-5.26921
0.00504386
13.8576
30.1295
0.268012
-2.81899
-3.11683
10.1706
7.58953
-15.041
-0.198062
-5.00972
-10.6522
-7.72332
9.18288
9.54196
8.58907
5.26564
-13.1782
9.0731
-11.475
-10.7706
-10.9601
-16.0132
21.1694
-6.85294
8.41272
-2.33326
-6.94179
-4.5999
-10.0558
-0.453992
0.571924
0.309766
1.7958
0.003578
-0.0211373
-0.241273
-0.175326
1.40193
0.795926
-2.18407
-2.51355
-1.84521
-19.07
-0.221158
26.0461
-24.2272
-11.1666
4.99596
3.87375
-12.3526
9.01554
18.0353
-3.9051
-13.1203
10.0006
8.52665
1.4186
-8.20837
-9.41848
-0.0188881
-0.160164
12.2461
-1.7378
1.27246
2.77303
13.1273
14.6597
8.44997
7.82152
-0.0120126
10.118
4.46872
7.7044
-1.82721
-0.486389
-15.7961
9.78533
-12.5318
0.122497
0.121021
-8.73815
11.9961
13.9092
-3.92544
-19.2536
-8.89717
7.50892
-5.54058
15.5127
-1.35678
-3.15925
-2.83352
-4.87991
-5.72057
-4.98914
-17.981
-9.12298
-8.12522
-8.17847
-10.0514
-9.22229
-8.89907
2.71615
-16.2346
-0.172035
-0.110947
13.2678
2.40431
3.02201
2.20002
17.0542
-5.4773
1.57859
1.39131
0.47743
15.83
-16.1183
-9.20286
-0.101693
-14.7701
0.079473
0.113832
0.236014
-1.74017
-0.476593
-0.128705
-13.5738
-0.764898
2.63276
2.11896
5.37863
10.1486
3.0001
2.95599
6.78941
6.1325
-8.63353
-4.96005
11.2636
-4.72896
-4.97975
-16.8848
-8.28958
-8.81212
-6.74046
0.887084
4.16391
-14.1897
-7.0419
13.4458
0.463411
-15.475
-6.20226
-13.0437
7.79184
8.39455
2.80167
2.0563
2.86705
3.03241
3.486
16.7245
-8.54045
-11.8355
7.85941
0.0774357
-8.31169
-8.77316
1.42016
-0.104391
8.4949
7.71504
8.40426
-9.65624
8.90383
-2.57906
15.0093
-0.0766691
2.61022
0.823478
2.02019
6.96797
7.07757
7.69721
4.52901
10.2044
-7.44977
-7.38555
7.90457
8.36092
1.13663
-13.9441
-4.19958
12.4573
12.8871
12.0172
-11.2052
-11.7055
-11.7129
-14.5681
0.00714066
0.0140712
0.0191712
-2.00495
4.78164
-13.1636
-0.103472
0.358915
0.450014
0.214853
19.3889
19.3379
21.6807
-4.03038
-1.48804
-0.863096
-1.04783
-3.05421
-11.9473
6.3055
5.6393
5.64856
5.8201
-14.1001
-2.12479
-1.7234
6.23015
6.95496
7.92292
-1.51158
-1.89313
-14.6467
-0.100655
14.5931
-2.78488
-3.34116
-3.33872
19.7663
4.2164
10.3922
-10.7524
-10.5717
5.07142
-0.0768506
-20.9181
-10.9065
9.02753
8.72511
9.27784
-14.5115
16.8226
2.8135
8.46752
9.12429
9.53735
21.412
22.8807
-1.80213
-14.8778
-0.902331
-3.11778
-13.7106
-0.351461
-0.579447
-2.47092
-11.8026
-4.248
2.68627
19.8996
1.41884
11.6842
-3.59251
-28.4506
8.30154
7.81932
-0.514324
0.0438568
5.20994
6.95632
3.50031
-0.00510025
-0.714487
15.3378
14.2671
11.6481
-12.4202
-8.83537
-0.0272737
11.0555
21.642
-21.8841
-23.7653
-19.8252
9.61917
15.8352
-0.43345
1.74219
1.89905
6.13075
-10.3409
8.60843
4.24382
-0.660126
-0.739173
-1.06364
24.2644
8.95878
-14.7387
1.57391
-1.05019
-14.4243
-11.2195
11.7958
2.36116
22.378
-9.70383
-1.63993
0.0664908
-16.4069
-1.62462
-7.13101
15.0204
-1.51189
-1.73244
-2.21669
5.26171
5.53195
6.13282
-0.623082
-0.00627558
-12.3089
-8.05004
10.0202
10.3534
0.0161372
-10.2593
0.00561305
11.7263
-4.43121
-0.100273
-8.99316
12.3633
-13.3455
-13.4763
18.4412
0.599968
-5.42768
5.6628
5.31927
6.2317
18.5099
-8.61547
-7.34097
-7.64072
-6.74089
0.0485406
17.706
25.6147
-9.48581
23.7883
-2.16748
-10.2596
-10.0012
-9.67439
-0.169586
0.181117
8.03737
6.68056
-9.47991
3.4584
-0.110129
0.936412
0.785449
0.838625
17.3212
9.0887
2.36631
1.9726
-8.1219
2.30848
20.8488
-0.10558
-2.39887
-2.32463
-2.75987
0.382006
-6.44756
10.62
10.7253
7.54347
-0.0846177
2.73108
0.0606985
-24.3577
-11.0624
15.2212
0.112877
-23.0877
-9.4641
0.0582508
8.85481
-2.98589
7.42311
6.76975
21.2927
-10.4469
-13.6829
18.4159
6.79475
7.2948
6.7009
0.0744247
8.17619
-0.377822
-17.3479
6.0342
-10.3105
-9.867
-17.6195
-10.261
-0.246681
-11.5351
-12.3912
-11.2058
15.7206
15.9966
-2.79432
5.09888
4.77848
9.61777
10.9421
0.483573
6.01582
9.85911
5.15728
3.75663
-17.3274
-7.71284
-4.95453
1.53601
1.01856
8.98874
5.79933
-1.137
-0.210464
-0.290426
-6.22444
-8.38226
-16.4579
1.91653
-2.43801
0.0189696
0.029406
-14.9654
-10.2997
-11.6636
-10.993
-18.4068
-9.1143
17.7345
7.33382
0.297057
-10.5917
0.96912
-6.34161
2.54887
3.05499
-16.0868
-0.785483
1.95198
-17.1798
4.58504
2.56788
-1.41973
-14.8621
-2.38146
0.0720204
-0.455831
16.3339
22.0575
-16.9441
-12.0379
-10.6275
-15.2701
0.957438
-21.5713
11.9286
12.1062
-17.2936
-19.9083
-3.86257
-13.148
-13.5047
0.137984
-2.25428
-2.87171
-2.74331
15.0774
-4.73201
-4.31293
-4.25131
-3.66082
-3.03269
-3.29924
28.3065
6.78865
-0.0583209
29.9291
8.09435
-17.5121
-0.501505
-4.98048
-18.2414
-11.4363
-11.4606
-9.9769
8.90145
-7.86114
-8.39663
7.02733
0.113476
-3.19867
-4.15585
4.53043
-0.0225852
0.037965
-2.8264
-1.83908
-0.361262
5.01857
-3.57669
-5.05088
-4.85296
2.02345
1.37754
-2.86085
-2.49799
-3.59394
2.65251
-0.125839
10.9357
11.5735
-4.79685
-4.34577
-4.45363
0.3342
17.95
18.6368
2.99055
9.06013
-10.5953
0.0538644
0.0730924
-7.23901
4.9448
-9.5072
-0.0643232
-12.3235
6.42379
-4.06144
6.05016
7.08184
-15.0435
2.41953
1.95755
2.01517
0.995578
1.17689
-5.38699
0.939849
3.52687
8.89298
1.8935
-7.38569
-8.23603
16.2746
14.8334
-13.2004
0.317157
19.7116
19.242
-3.20081
-3.6901
-8.58232
8.23889
1.78978
-31.2597
0.0355883
-0.00484926
6.83444
6.23742
6.99057
0.386462
2.37506
2.83079
-10.0343
-0.0182052
-4.93595
-9.37694
-9.23055
-9.05655
-17.339
13.1107
-0.153518
5.80772
14.296
11.1382
-7.78437
-7.63643
14.3239
-1.48667
-16.2132
-5.66745
-5.31259
-8.87455
0.945784
1.15794
-14.2301
1.5725
2.1263
3.36284
0.0679396
2.49207
2.20758
-3.30348
-8.00601
8.05872
21.043
-0.178558
-0.445856
-7.45634
7.1559
-0.0337866
10.4824
27.4984
6.05327
6.78425
6.31914
5.60062
8.52102
1.04085
29.0498
7.28624
-8.68354
-9.14081
10.1168
-11.6335
-12.5735
-11.9426
11.163
-2.02323
-9.72448
-9.95812
0.509611
17.7127
-14.995
-6.36015
-7.1146
-5.93646
-8.3074
7.00684
-2.43409
-10.3052
-9.51149
6.86095
30.9351
33.502
32.4774
16.9661
-6.53073
-0.0493027
-7.72326
-0.0077345
3.80481
-10.8345
16.9496
8.70051
-25.2469
30.987
11.0225
7.96795
10.3052
9.60812
-5.01699
34.2113
-0.27701
-0.556811
7.39711
7.55859
-18.8565
-19.5064
8.19594
11.8619
0.178419
-16.8125
-0.00516668
0.995963
2.94706
2.85687
3.21359
0.0608563
3.66207
-3.15351
-8.25183
-5.87401
-11.1415
-11.091
-0.617636
-9.97399
-11.1695
-12.1989
-3.84385
-10.2255
-9.65302
12.36
-2.69212
-2.71556
-8.35003
-0.0611797
5.21393
-5.82852
0.00781297
13.1784
-7.34874
-0.502385
6.22978
-17.0664
1.37446
7.53188
-6.06813
-4.4949
-11.4358
0.0204086
-10.8582
1.29205
5.45637
4.35192
3.57409
-9.32703
-7.24978
-9.19252
-13.1299
-3.42615
-3.44486
-8.16198
-17.5161
0.196559
-0.644911
-1.25627
-6.51915
5.82425
32.0529
0.378835
-0.135765
-4.54001
2.2041
14.2274
13.3831
-3.28387
-0.319882
16.402
10.0819
-4.81306
6.67563
6.93588
-9.84306
3.89218
12.3966
11.798
11.6617
-9.21888
3.21409
-3.95521
13.6496
13.6755
-8.96251
12.3564
-7.78964
-22.7085
-6.90797
15.9487
-1.74296
-8.03161
-7.40915
-7.34498
0.236924
0.0628124
-9.20408
-0.460558
0.0249504
-20.3812
-19.2045
-21.0244
-8.06844
-5.47748
-6.76131
-8.27985
-9.93056
-9.31323
28.0937
-11.1715
-3.28512
12.8563
-14.2689
14.1191
3.5765
3.76134
-4.23908
-4.13877
-18.1171
7.90747
-14.3158
0.0379541
6.07202
19.0837
-11.2148
3.98542
-10.3802
16.5069
-13.9258
-0.991735
-13.6956
2.12598
10.5278
3.84193
-0.428834
-20.2801
0.225803
2.13005
-16.6941
1.07146
0.814397
-7.07996
-1.03218
-1.37171
0.0315017
-13.8791
4.5335
5.04616
1.73425
-4.38902
5.91687
-5.49953
14.9749
14.5051
14.4316
-15.8473
19.3822
-13.2782
-6.81598
10.2182
0.261711
-0.155278
4.80212
5.26543
1.45651
-9.27439
12.459
5.59371
-12.1441
4.14279
-18.2453
-17.8079
11.4159
3.629
17.9763
17.2109
0.152091
0.129002
-6.49075
2.90741
3.47198
3.34034
13.4164
8.5981
13.6583
3.47462
1.66011
4.74443
-3.73421
-4.47423
16.8884
8.61001
-5.74892
-10.0468
10.1428
0.0475856
0.040397
-4.86881
-10.5832
7.99987
5.40122
0.113509
0.0194612
-2.5315
-0.913657
-0.608783
2.97216
14.6313
11.8979
14.1825
-8.07977
15.6521
-0.0983298
8.56928
0.00368171
-10.8219
11.6684
12.8421
5.84562
-13.0073
1.53584
23.3701
8.75105
9.2111
4.86965
-6.37127
-7.00027
2.44042
-0.0171398
-3.43017
0.0238549
-1.437
-7.84502
-0.833706
6.40399
2.39473
10.0669
-6.7948
3.5468
16.9536
3.15141
3.87217
-3.25914
-1.76183
22.8583
-20.6066
18.1545
11.2061
-4.75754
-1.01552
6.26162
6.28907
0.689402
9.19885
-11.3697
-4.42926
-0.0392183
0.621804
-1.83075
3.36959
-17.9518
-9.4222
4.76285
11.6705
-5.74152
-2.6572
-18.24
0.638515
-5.33799
-2.889
-6.5529
5.80484
9.5067
-0.91368
-1.28326
-0.00908779
-11.4589
-10.2418
5.03792
15.5547
-15.3814
4.41953
-12.531
-0.514277
-9.53984
7.9217
-3.80899
-0.931215
14.9693
-18.4249
-3.5185
15.1224
-1.34786
27.2713
5.58484
-9.50177
3.95433
4.16599
0.12322
-6.48196
-5.14539
-17.5906
-8.49277
6.59217
14.7729
-9.29858
8.07083
14.4997
-6.34567
3.43255
-3.87434
13.63
-3.4025
-3.13077
-10.7674
-1.34439
-9.47462
-1.327
1.91847
19.2199
-0.289016
5.63457
1.5923
-2.70812
11.2309
36.0087
15.4852
-10.3693
-4.83031
-12.9417
-12.003
16.7812
0.0838877
0.113005
-8.16432
-19.0344
2.50358
-3.89762
-3.41652
0.210802
16.3124
17.1443
16.5728
17.6281
4.39266
4.37458
22.7278
-17.3417
1.10335
12.8046
-0.182534
-16.6156
0.439386
0.00709024
-3.37672
-1.07381
-9.46802
-22.5983
0.967747
1.73322
4.43337
-3.06686
0.231978
-9.80438
17.7625
2.84185
11.212
-16.8644
13.3597
4.29583
-7.00951
17.0839
-1.39662
-8.30361
12.3625
-2.79731
16.3825
-3.8253
-18.7912
-19.427
-18.85
-18.3516
-22.3534
-20.2755
-2.96539
0.459897
0.997601
-4.84029
-10.5087
6.50215
0.015895
-0.661953
-3.06678
4.71444
18.2907
6.06568
10.9596
11.223
-2.02753
6.78459
8.045
12.7811
-4.77007
4.04006
14.9963
13.0889
-1.58032
-4.02317
-1.06801
17.9991
12.1354
-15.323
-9.45199
13.4649
30.4643
3.78619
10.5955
-2.71972
-2.54765
9.49054
-8.41439
-10.6127
-0.458006
10.8923
9.6602
33.368
0.125754
15.0473
-13.3876
15.0049
9.37002
9.49701
-12.8163
23.6714
-3.69598
22.9811
9.62196
17.6954
-13.3219
19.721
15.8334
6.06181
5.54879
3.89489
11.6583
7.20058
5.53521
-18.5884
-0.693874
6.33756
-7.61275
3.24279
-17.7002
-2.72629
-2.10153
7.43061
13.9519
5.3816
-15.9753
-7.72553
-14.9484
-13.1844
23.7603
-1.67787
10.1949
-17.8239
15.4622
-14.8882
7.08425
-18.3571
7.73043
-4.17452
-26.2322
-0.633837
20.0357
3.79472
3.99941
-7.08975
-13.2842
7.36534
9.63947
25.2145
-2.952
-19.3941
-9.18017
-10.528
0.169111
-0.655284
25.4753
4.00594
18.618
6.52814
-0.808199
10.5292
-17.7356
7.20791
4.05117
5.19587
-1.32898
-20.1797
7.42797
-11.2763
0.398063
-4.32729
-0.0106293
-0.119794
-1.01061
11.0849
8.78868
9.44364
17.4878
0.226185
10.2794
-1.02034
-3.83824
14.1068
17.1452
SCALARS Saturation float 1
LOOKUP_TABLE default
0
0
0
0
0
0
0
0
0
0
0
0
0
0
0
0
0
0
0
0
0
0
0
0
0
0
0
0
0.39662
0.46438
0.404107
0
0
0
0
0
0
0
0
0
0
0
0
0
0
0
0
0
0
0
0
0
0
0
0
0
0
0
0
0
0
0
0
0
0
0
0
0
0
0
0
0
0
0
0
0
0
0
0
0
0
0
0
0
0
0
0
0
0
0
0
0
0
0
0
0
0
0.42817
0.505931
0.395279
0
0
0
0
0
0
0
0
0
0
0
0
0
0
0
0
0
0
0
0
0
0
0
0
0
0
0
0
0
0
0
0
0
0
0
0
0
0
0
0
0
0
0
0
0
0
0
0
0
0
0
0
0
0
0
0
0
0
0
0
0
0
0
0
0
0
0
0
0
0
0
0
0.287764
0
0
0
0
0
0
0
0
0
0
0
0
0
0
0
0
0
0
0
0
0
0.489609
0
0
0
0
0
0
0
0
0
0
0
0
0
0
0
0
0
0
0
0
0
0
0
0
0
0
0.0203855
0
0
0
0
0
0
0
0
0
0
0
0
0
0
0
0
0
0
0
0
0
0
0
0
0
0
0
0.212544
0.314062
0.196922
0
0
0
0
0
0
0
0
0
0
0
0
0
0
0
0
0
0
0
0
0
0
0
0
0
0.416051
0
0
0
0
0
0
0
0
0
0
0
0
0
0
0
0
0
0
0
0
0
0
0
0
0
0
0
0.526123
0
0
0
0
0
0
0
0
0
0
0
0
0
0
0
0
0
0
0
0
0
0
0
0
0
0
0
0
0
0
0
0
0
0
0
0
0
0.559929
0
0
0.0901403
0
0
0
0
0
0
0
0
0
0
0
0
0
0
0
0
0
0
0
0
0
0
0
0
0
0
0
0
0
0
0
0
0
0
0.3604
0
0
0
0
0
0
0
0
0
0
0
0
0
0
0
0
0
0
0.0142479
0
0
0
0
0
0
0
0
0
0
0
0
0
0
0
0
0
0
0
0
0
0
0
0
0
0
0
0
0
0
0
0
0
0
0
0
0
0
0
0.138519
0
0
0
0
0
0
0
0
0
0
0
0
0
0
0
0
0
0
0
0
0
0
0
0
0
0
0
0
0
0
0
0
0
0
0
0
0
0
0
0
0
0
0
0
0
0
0
0
0
0
0
0
0
0.554114
0
0
0
0
0
0
0
0
0
0
0
0
0
0
0
0
0
0
0
0
0
0
0
0
0
0
0
0
0
0
0
0
0
0
0
0
0
0
0
0
0
0
0
0
0
0
0
0
0.79514
0.689707
0.661089
0
0
0
0
0
0
0
0
0
0
0
0
0
0
0
0
0
0
0
0
0
0
0
0
0
0
0
0
0
0
0
0
0
0
0
0
0
0
0
0
0
0
0.305018
0
0
0
0
0
0
0
0
0
0
0
0
0
0
0
0
0
0
0
0
0
0
0
0
0
0
0
0
0
0
0
0
0
0
0
0.64501
0
0
0
0
0
0
0
0
0
0
0
0
0
0
0
0
0
0
0
0
0.169158
0
0
0
0
0
0
0
0
0
0
0
0
0
0
0
0
0
0
0
0
0
0.42971
0
0
0
0
0
0
0
0
0
0
0
0
0
0
0
0
0
0
0
0
0
0
0
0
0
0
0
0
0
0
0
0
0
0
0
0
0
0
0
0
0
0
0
0
0
0
0
0
0
0
0
0
0
0
0
0
0
0
0
0
0
0
0
0
0
0
0
0
0
0
0
0
0
0
0
0
0
0
0
0
0
0
0
0
0
0
0
0
0
0
0
0
0
0
0
0
0
0
0
0
0
0
0
0
0
0
0
0
0
0
0
0
0
0
0
0
0
0
0
0
0
0
0
0
0
0
0
0
0
0
0
0
0
0
0
0
0
0
0
0
0
0
0
0
0
0
0
0
0
0
0
0
0
0
0
0
0
0
0
0
0
0
0
0
0
0.0426937
0.0148737
0.145126
0
0
0
0
0
0
0
0
0
0
0
0
0
0
0
0
0
0
0
0
0
0
0
0
0.0869164
0
0
0
0
0
0
0
0
0
0
0
0
0
0
0
0
0
0.127917
0.214672
0
0
0
0
0
0
0
0
0
0
0
0.175695
0
0
0
0
0
0
0
0
0
0
0
0
0
0
0
0
0
0
0
0
0.16511
0
0
0
0
0
0
0
0
0
0
0
0
0
0
0
0.296821
0
0
0
0
0
0
0
0
0.278708
0
0
0
0
0
0
0
0
0
0
0
0
0
0
0
0
0
0
0
0
0
0
0
0
0
0
0
0
0
0.0378888
0
0
0
0
0
0
0
0
0
0
0
0
0.468694
0
0.307514
0
0
0
0
0
0
0
0
0
0
0
0
0
0
0
0
0
0
0
0
0.171019
0
0
0
0
0
0
0
0
0
0
0
0
0
0
0
0
0
0
0
0
0
0
0
0.107936
0
0
0
0
0
0
0
0
0
0
0
0
0
0
0
0
0
0
0
0
0
0
0
0
0
0
0
0
0
0
0
0
0
0
0
0
0
0
0
0
0
0
0
0
0
0
0
0
0
0
0
0
0
0
0
0
0
0
0
0
0
0
0
0
0
0
0
0
0
0
0
0
0
0
0.191721
0
0
0
0
0
0
0
0
0
0
0
0
0
0
0
0
0
0
0
0
0
0
0
0
0.606288
0
0
0.668864
0
0
0
0
0
0
0
0
0
0
0
0
0
0
0
0
0
0
0
0
0
0
0
0
0
0
0
0
0
0
0
0
0
0
0
0
0
0
0
0
0
0
0
0
0
0
0
0
0
0
0
0
0
0
0
0
0
0
0
0
0
0
0
0
0
0
0
0
0
0
0
0.02709
0.0307547
0
0
0
0
0
0
0
0
0
0
0
0
0
0
0
0
0
0
0
0
0
0
0
0
0
0
0
0
0
0
0
0
0
0
0
0
0
0
0
0
0
0
0
0
0
0
0.127916
0
0
0
0
0
0
0.535619
0
0
0
0
0
0
0.61981
0
0
0
0
0
0
0
0
0
0
0
0
0
0
0
0
0
0
0
0
0
0
0
0.740653
0.871866
0.806844
0
0
0
0
0
0
0
0
0
0
0.725067
0
0
0
0
0
0.8911
0
0
0
0
0
0
0
0
0
0
0
0
0
0
0
0
0
0
0
0
0
0
0
0
0
0
0
0
0
0
0
0
0
0
0
0
0
0
0
0
0
0
0
0
0
0
0
0
0
0
0
0
0
0
0
0
0
0
0
0
0
0
0
0
0
0
0.783642
0
0
0
0
0
0
0
0
0
0
0
0
0
0
0
0
0
0
0
0
0
0
0
0
0
0
0
0
0
0
0
0
0
0
0
0
0
0
0
0
0
0
0
0
0
0
0
0.547191
0
0
0
0
0
0
0
0
0
0
0
0
0
0
0.112084
0
0
0
0
0
0
0
0
0
0
0
0
0
0
0
0
0
0
0
0
0
0
0
0
0
0
0
0
0
0
0
0
0
0
0
0
0
0
0
0
0
0
0
0
0
0
0
0
0
0
0
0
0
0
0
0
0
0
0
0
0
0
0
0
0
0
0
0
0
0
0
0
0
0
0
0
0
0
0
0
0
0
0
0
0
0
0
0
0
0
0
0
0
0
0
0
0
0.243225
0
0
0
0
0
0
0
0
0
0
0
0
0
0
0
0
0
0
0
0
0
0
0.327795
0
0
0
0
0
0
0
0
0
0
0
0
0
0
0
0
0
0
0
0
0
0
0
0
0
0
0
0
0
0
0
0
0
0
0
0
0
0
0
0
0
0
0
0
0
0
0
0
0.552909
0
0
0
0
0
0
0
0
0
0
0
0
0
0
0
0
0
0
0
0
0
0
0
0
0
0
0
0
0
0
0
1
0
0
0
0
0
0
0
0
0
0
0
0
0
0
0
0
0
0
0
0
0.240688
0
0
0
0
0
0
0
0
0
0
0
0
0
0
0
0
0
0
0
0
0
0
0
0
0
0
0
0
0
0
0
0
0
0
0
0
0
0
0
0
0
0
0
0
0
0
0
0
0
0
0
0
0
0
0
0
0
0
0
0
0
0
0
0
0
0
0
0.716293
0
0
0
0
0
0
0
0
0
0
0.864876
0
0
0
0
0
0
0
0.310037
0
0.30294
0
0
0
0.0792768
0
0
0
0
0
0
0
0
0
0
0
0
0
0
0
0
0
0
0
0
0
0
0.37325
0
0
0
0
0
0
0
0
0
0
0
0.18351
0
0
0
0
0
0
0.428039
0
0
0
0
0
0